============================== echo of input deck ==============================
echo

start molecule

title "diethylether"
memory total 2 gb

charge 0
geometry units angstrom print xyz
    O         -0.17460       -0.24690        0.00000
    C          1.26190       -0.32080        0.00000
    C         -0.72310        1.08280       -0.00000
    C          1.72800       -1.78680       -0.00000
    C         -2.26060        1.03360       -0.00000
    H          1.66840        0.16990        0.88840
    H          1.66840        0.16990       -0.88840
    H         -0.39600        1.62960       -0.88840
    H         -0.39600        1.62960        0.88840
    H          2.81920       -1.82860       -0.00000
    H          1.36130       -2.30530       -0.88800
    H          1.36130       -2.30530        0.88800
    H         -2.66380        2.04850       -0.00000
    H         -2.62730        0.51500       -0.88800
    H         -2.62730        0.51500        0.88800
end

basis spherical
 * library cc-pVDZ
end

task scf optimize
================================================================================

         Total SCF energy =   -232.157768424890
@ Step       Energy      Delta E   Gmax     Grms     Xrms     Xmax   Walltime
@ ---- ---------------- -------- -------- -------- -------- -------- --------
@    0    -232.15776842  0.0D+00  0.03240  0.00652  0.00000  0.00000      1.6
         Total SCF energy =   -232.161432199255
         Total SCF energy =   -232.161788417742
@    1    -232.16178842 -4.0D-03  0.00454  0.00109  0.07861  0.16995      3.5
         Total SCF energy =   -232.162136354993
         Total SCF energy =   -232.162136354993
@    2    -232.16213635 -3.5D-04  0.00147  0.00036  0.01620  0.04995      4.8
         Total SCF energy =   -232.162172052373
         Total SCF energy =   -232.162175030912
@    3    -232.16217503 -3.9D-05  0.00050  0.00013  0.00343  0.00933      6.6
         Total SCF energy =   -232.162179092108
         Total SCF energy =   -232.162179409496
@    4    -232.16217941 -4.4D-06  0.00010  0.00003  0.00160  0.00355      8.4
         Total SCF energy =   -232.162179912775

 Vector   19  Occ=2.000000D+00  E=-4.838984D-01  Symmetry=a2

 Vector   20  Occ=2.000000D+00  E=-4.643915D-01  Symmetry=a1

 Vector   21  Occ=2.000000D+00  E=-4.111085D-01  Symmetry=b2

 Vector   22  Occ=0.000000D+00  E= 1.863228D-01  Symmetry=a1

 Vector   23  Occ=0.000000D+00  E= 2.035077D-01  Symmetry=b1

 Vector   24  Occ=0.000000D+00  E= 2.228996D-01  Symmetry=a1

 Vector   25  Occ=0.000000D+00  E= 2.328045D-01  Symmetry=b2

 Vector   26  Occ=0.000000D+00  E= 2.630999D-01  Symmetry=a1

 Vector   27  Occ=0.000000D+00  E= 2.650506D-01  Symmetry=b1

 Vector   28  Occ=0.000000D+00  E= 2.732248D-01  Symmetry=a2

 Vector   29  Occ=0.000000D+00  E= 2.889460D-01  Symmetry=b1

 Vector   30  Occ=0.000000D+00  E= 2.930094D-01  Symmetry=b2

 Vector   31  Occ=0.000000D+00  E= 3.050937D-01  Symmetry=a2

 Vector   32  Occ=0.000000D+00  E= 3.357579D-01  Symmetry=a1

 Vector   33  Occ=0.000000D+00  E= 3.793165D-01  Symmetry=a1

 Vector   34  Occ=0.000000D+00  E= 4.295020D-01  Symmetry=b1

 Vector   35  Occ=0.000000D+00  E= 4.397802D-01  Symmetry=b1

 Vector   36  Occ=0.000000D+00  E= 5.901381D-01  Symmetry=a1

         Total SCF energy =   -232.162179965121

 Vector    6  Occ=2.000000D+00  E=-1.381019D+00  Symmetry=a1

 Vector    7  Occ=2.000000D+00  E=-1.043948D+00  Symmetry=b1

 Vector    8  Occ=2.000000D+00  E=-9.814208D-01  Symmetry=a1

 Vector    9  Occ=2.000000D+00  E=-8.437801D-01  Symmetry=b1

 Vector   10  Occ=2.000000D+00  E=-8.237370D-01  Symmetry=a1

 Vector   11  Occ=2.000000D+00  E=-6.759068D-01  Symmetry=b2

 Vector   12  Occ=2.000000D+00  E=-6.663834D-01  Symmetry=b1

 Vector   13  Occ=2.000000D+00  E=-6.023660D-01  Symmetry=a2

 Vector   14  Occ=2.000000D+00  E=-5.986765D-01  Symmetry=a1

 Vector   15  Occ=2.000000D+00  E=-5.466110D-01  Symmetry=a1

 Vector   16  Occ=2.000000D+00  E=-5.274769D-01  Symmetry=b2

 Vector   17  Occ=2.000000D+00  E=-5.196879D-01  Symmetry=b1

 Vector   18  Occ=2.000000D+00  E=-4.920478D-01  Symmetry=b1

 Vector   19  Occ=2.000000D+00  E=-4.838844D-01  Symmetry=a2

 Vector   20  Occ=2.000000D+00  E=-4.643593D-01  Symmetry=a1

 Vector   21  Occ=2.000000D+00  E=-4.111003D-01  Symmetry=b2

 Vector   22  Occ=0.000000D+00  E= 1.863259D-01  Symmetry=a1

 Vector   23  Occ=0.000000D+00  E= 2.035062D-01  Symmetry=b1

 Vector   24  Occ=0.000000D+00  E= 2.229021D-01  Symmetry=a1

 Vector   25  Occ=0.000000D+00  E= 2.328125D-01  Symmetry=b2

 Vector   26  Occ=0.000000D+00  E= 2.631001D-01  Symmetry=a1

 Vector   27  Occ=0.000000D+00  E= 2.650377D-01  Symmetry=b1

 Vector   28  Occ=0.000000D+00  E= 2.732239D-01  Symmetry=a2

 Vector   29  Occ=0.000000D+00  E= 2.889366D-01  Symmetry=b1

 Vector   30  Occ=0.000000D+00  E= 2.930062D-01  Symmetry=b2

 Vector   31  Occ=0.000000D+00  E= 3.050680D-01  Symmetry=a2

 Vector   32  Occ=0.000000D+00  E= 3.357607D-01  Symmetry=a1

 Vector   33  Occ=0.000000D+00  E= 3.792925D-01  Symmetry=a1

 Vector   34  Occ=0.000000D+00  E= 4.294868D-01  Symmetry=b1

 Vector   35  Occ=0.000000D+00  E= 4.397862D-01  Symmetry=b1

 Vector   36  Occ=0.000000D+00  E= 5.901281D-01  Symmetry=a1

@    5    -232.16217997 -5.6D-07  0.00004  0.00001  0.00104  0.00234     10.2
         Total SCF energy =   -232.162179980526

 Vector    6  Occ=2.000000D+00  E=-1.381043D+00  Symmetry=a1

 Vector    7  Occ=2.000000D+00  E=-1.043936D+00  Symmetry=b1

 Vector    8  Occ=2.000000D+00  E=-9.814194D-01  Symmetry=a1

 Vector    9  Occ=2.000000D+00  E=-8.437693D-01  Symmetry=b1

 Vector   10  Occ=2.000000D+00  E=-8.237476D-01  Symmetry=a1

 Vector   11  Occ=2.000000D+00  E=-6.759247D-01  Symmetry=b2

 Vector   12  Occ=2.000000D+00  E=-6.663746D-01  Symmetry=b1

 Vector   13  Occ=2.000000D+00  E=-6.023651D-01  Symmetry=a2

 Vector   14  Occ=2.000000D+00  E=-5.986816D-01  Symmetry=a1

 Vector   15  Occ=2.000000D+00  E=-5.466193D-01  Symmetry=a1

 Vector   16  Occ=2.000000D+00  E=-5.274810D-01  Symmetry=b2

 Vector   17  Occ=2.000000D+00  E=-5.196866D-01  Symmetry=b1

 Vector   18  Occ=2.000000D+00  E=-4.920259D-01  Symmetry=b1

 Vector   19  Occ=2.000000D+00  E=-4.838827D-01  Symmetry=a2

 Vector   20  Occ=2.000000D+00  E=-4.643748D-01  Symmetry=a1

 Vector   21  Occ=2.000000D+00  E=-4.111152D-01  Symmetry=b2

 Vector   22  Occ=0.000000D+00  E= 1.863222D-01  Symmetry=a1

 Vector   23  Occ=0.000000D+00  E= 2.035038D-01  Symmetry=b1

 Vector   24  Occ=0.000000D+00  E= 2.229071D-01  Symmetry=a1

 Vector   25  Occ=0.000000D+00  E= 2.328101D-01  Symmetry=b2

 Vector   26  Occ=0.000000D+00  E= 2.630988D-01  Symmetry=a1

 Vector   27  Occ=0.000000D+00  E= 2.650436D-01  Symmetry=b1

 Vector   28  Occ=0.000000D+00  E= 2.732275D-01  Symmetry=a2

 Vector   29  Occ=0.000000D+00  E= 2.889394D-01  Symmetry=b1

 Vector   30  Occ=0.000000D+00  E= 2.930057D-01  Symmetry=b2

 Vector   31  Occ=0.000000D+00  E= 3.050671D-01  Symmetry=a2

 Vector   32  Occ=0.000000D+00  E= 3.357659D-01  Symmetry=a1

 Vector   33  Occ=0.000000D+00  E= 3.792824D-01  Symmetry=a1

 Vector   34  Occ=0.000000D+00  E= 4.294955D-01  Symmetry=b1

 Vector   35  Occ=0.000000D+00  E= 4.397758D-01  Symmetry=b1

 Vector   36  Occ=0.000000D+00  E= 5.901339D-01  Symmetry=a1

       Multipole analysis of the density wrt the origin
       ------------------------------------------------

     L   x y z        total         open         nuclear
     -   - - -        -----         ----         -------
     0   0 0 0     -0.000000      0.000000     42.000000

     1   1 0 0     -0.000000      0.000000      0.000000
     1   0 1 0      0.000000      0.000000      0.000000
     1   0 0 1      0.464514      0.000000      0.374235

     2   2 0 0    -23.087695      0.000000    473.987319
     2   1 1 0      0.000000      0.000000      0.000000
     2   1 0 1     -0.000000      0.000000      0.000000
     2   0 2 0    -24.541800      0.000000     22.303484
     2   0 1 1     -0.000000      0.000000      0.000000

         Total SCF energy =   -232.162179980526
@    6    -232.16217998 -1.5D-08  0.00000  0.00000  0.00024  0.00053     11.4
@    6    -232.16217998 -1.5D-08  0.00000  0.00000  0.00024  0.00053     11.4

 Output coordinates in angstroms (scale by  1.889725989 to convert to a.u.)

  No.       Tag          Charge          X              Y              Z
 ---- ---------------- ---------- -------------- -------------- --------------
    1 O                    8.0000     0.00000000     0.00000000    -0.22784882
    2 C                    6.0000    -1.17572811     0.00000000     0.52502392
    3 C                    6.0000     1.17572811     0.00000000     0.52502392
    4 C                    6.0000    -2.35878452     0.00000000    -0.41940646
    5 C                    6.0000     2.35878452     0.00000000    -0.41940646
    6 H                    1.0000    -1.20754240     0.88298938     1.17637288
    7 H                    1.0000    -1.20754240    -0.88298938     1.17637288
    8 H                    1.0000     1.20754240    -0.88298938     1.17637288
    9 H                    1.0000     1.20754240     0.88298938     1.17637288
   10 H                    1.0000    -3.29612084     0.00000000     0.14134896
   11 H                    1.0000    -2.33527916    -0.88415659    -1.05869291
   12 H                    1.0000    -2.33527916     0.88415659    -1.05869291
   13 H                    1.0000     3.29612084     0.00000000     0.14134896
   14 H                    1.0000     2.33527916    -0.88415659    -1.05869291
   15 H                    1.0000     2.33527916     0.88415659    -1.05869291

 Total times  cpu:       11.4s     wall:       11.4s
