============================== echo of input deck ==============================
echo
start molecule
title "H2O"
charge 0
memory total 2 gb
geometry units angstrom
H 0.86681 0.60144 0.00000
H -0.86681 0.60144 0.00000
O 0.00000 -0.07579 0.00000
end
basis spherical
* library cc-pVDZ
end
task scf
================================================================================

 Output coordinates in angstroms (scale by  1.889725989 to convert to a.u.)

  No.       Tag          Charge          X              Y              Z
 ---- ---------------- ---------- -------------- -------------- --------------
    1 H                    1.0000    -0.86681000     0.00000000     0.54178400
    2 H                    1.0000     0.86681000     0.00000000     0.54178400
    3 O                    8.0000     0.00000000     0.00000000    -0.13544600

         Total SCF energy =    -75.989795874409

 Vector    2  Occ=2.000000D+00  E=-1.277566D+00  Symmetry=a1

 Vector    3  Occ=2.000000D+00  E=-6.299111D-01  Symmetry=b1

 Vector    4  Occ=2.000000D+00  E=-5.416848D-01  Symmetry=a1

 Vector    5  Occ=2.000000D+00  E=-4.865456D-01  Symmetry=b2

 Vector    6  Occ=0.000000D+00  E= 1.576212D-01  Symmetry=a1

 Vector    7  Occ=0.000000D+00  E= 2.295125D-01  Symmetry=b1

 Vector    8  Occ=0.000000D+00  E= 7.046783D-01  Symmetry=b1

 Vector    9  Occ=0.000000D+00  E= 7.445637D-01  Symmetry=a1

 Vector   10  Occ=0.000000D+00  E= 1.170810D+00  Symmetry=a1

 Vector   11  Occ=0.000000D+00  E= 1.186419D+00  Symmetry=b2

 Vector   12  Occ=0.000000D+00  E= 1.268027D+00  Symmetry=b1

 Vector   13  Occ=0.000000D+00  E= 1.450915D+00  Symmetry=a2

 Vector   14  Occ=0.000000D+00  E= 1.473924D+00  Symmetry=a1

 Vector   15  Occ=0.000000D+00  E= 1.658467D+00  Symmetry=b2

       Multipole analysis of the density wrt the origin
       ------------------------------------------------

     L   x y z        total         open         nuclear
     -   - - -        -----         ----         -------
     0   0 0 0     -0.000000      0.000000     10.000000

     1   1 0 0     -0.000000      0.000000      0.000000
     1   0 1 0     -0.000000      0.000000      0.000000
     1   0 0 1      0.856349      0.000000      0.000000

     2   2 0 0     -2.854616      0.000000      5.366307
     2   1 1 0      0.000000      0.000000      0.000000
     2   1 0 1     -0.000000      0.000000      0.000000
     2   0 2 0     -5.465025      0.000000      0.000000
     2   0 1 1      0.000000      0.000000      0.000000

 Total times  cpu:        0.1s     wall:        0.1s
