============================== echo of input deck ==============================
echo

start molecule

title "CO"
memory total 2 gb

charge 0
geometry units angstrom print xyz
 C 0.00000 0.00000 0.00000
 O 0.00000 0.00000 1.0
end

basis spherical
 * library cc-pVDZ
end

task scf optimize
================================================================================

         Total SCF energy =   -112.707133288178
@ Step       Energy      Delta E   Gmax     Grms     Xrms     Xmax   Walltime
@ ---- ---------------- -------- -------- -------- -------- -------- --------
@    0    -112.70713329  0.0D+00  0.46906  0.46906  0.00000  0.00000      0.3
         Total SCF energy =   -112.744336655361

 Vector    2  Occ=2.000000D+00  E=-1.137902D+01  Symmetry=a1

 Vector    3  Occ=2.000000D+00  E=-1.501891D+00  Symmetry=a1

 Vector    4  Occ=2.000000D+00  E=-7.993174D-01  Symmetry=a1

 Vector    5  Occ=2.000000D+00  E=-6.214433D-01  Symmetry=e

 Vector    6  Occ=2.000000D+00  E=-6.214433D-01  Symmetry=e

 Vector    7  Occ=2.000000D+00  E=-5.521972D-01  Symmetry=a1

 Vector    8  Occ=0.000000D+00  E= 1.421745D-01  Symmetry=e

 Vector    9  Occ=0.000000D+00  E= 1.421745D-01  Symmetry=e

 Vector   10  Occ=0.000000D+00  E= 3.802446D-01  Symmetry=a1

 Vector   11  Occ=0.000000D+00  E= 6.710800D-01  Symmetry=e

 Vector   12  Occ=0.000000D+00  E= 6.710800D-01  Symmetry=e

 Vector   13  Occ=0.000000D+00  E= 7.231945D-01  Symmetry=a1

 Vector   14  Occ=0.000000D+00  E= 9.732881D-01  Symmetry=a1

 Vector   15  Occ=0.000000D+00  E= 1.061608D+00  Symmetry=a1

 Vector   16  Occ=0.000000D+00  E= 1.229563D+00  Symmetry=e

 Vector   17  Occ=0.000000D+00  E= 1.229563D+00  Symmetry=e

         Total SCF energy =   -112.750136821813

 Vector    2  Occ=2.000000D+00  E=-1.135830D+01  Symmetry=a1

 Vector    3  Occ=2.000000D+00  E=-1.537173D+00  Symmetry=a1

 Vector    4  Occ=2.000000D+00  E=-8.040149D-01  Symmetry=a1

 Vector    5  Occ=2.000000D+00  E=-6.433702D-01  Symmetry=e

 Vector    6  Occ=2.000000D+00  E=-6.433702D-01  Symmetry=e

 Vector    7  Occ=2.000000D+00  E=-5.462818D-01  Symmetry=a1

 Vector    8  Occ=0.000000D+00  E= 1.631284D-01  Symmetry=e

 Vector    9  Occ=0.000000D+00  E= 1.631284D-01  Symmetry=e

 Vector   10  Occ=0.000000D+00  E= 3.839337D-01  Symmetry=a1

 Vector   11  Occ=0.000000D+00  E= 6.729827D-01  Symmetry=e

 Vector   12  Occ=0.000000D+00  E= 6.729827D-01  Symmetry=e

 Vector   13  Occ=0.000000D+00  E= 7.285574D-01  Symmetry=a1

 Vector   14  Occ=0.000000D+00  E= 1.031086D+00  Symmetry=a1

 Vector   15  Occ=0.000000D+00  E= 1.080936D+00  Symmetry=a1

 Vector   16  Occ=0.000000D+00  E= 1.220828D+00  Symmetry=e

 Vector   17  Occ=0.000000D+00  E= 1.220828D+00  Symmetry=e

@    1    -112.75013682 -4.3D-02  0.00654  0.00654  0.05886  0.10196      0.6
         Total SCF energy =   -112.750149224021

 Vector    2  Occ=2.000000D+00  E=-1.135893D+01  Symmetry=a1

 Vector    3  Occ=2.000000D+00  E=-1.536098D+00  Symmetry=a1

 Vector    4  Occ=2.000000D+00  E=-8.038722D-01  Symmetry=a1

 Vector    5  Occ=2.000000D+00  E=-6.426876D-01  Symmetry=e

 Vector    6  Occ=2.000000D+00  E=-6.426876D-01  Symmetry=e

 Vector    7  Occ=2.000000D+00  E=-5.464801D-01  Symmetry=a1

 Vector    8  Occ=0.000000D+00  E= 1.624848D-01  Symmetry=e

 Vector    9  Occ=0.000000D+00  E= 1.624848D-01  Symmetry=e

 Vector   10  Occ=0.000000D+00  E= 3.838358D-01  Symmetry=a1

 Vector   11  Occ=0.000000D+00  E= 6.729246D-01  Symmetry=e

 Vector   12  Occ=0.000000D+00  E= 6.729246D-01  Symmetry=e

 Vector   13  Occ=0.000000D+00  E= 7.284091D-01  Symmetry=a1

 Vector   14  Occ=0.000000D+00  E= 1.030753D+00  Symmetry=a1

 Vector   15  Occ=0.000000D+00  E= 1.078826D+00  Symmetry=a1

 Vector   16  Occ=0.000000D+00  E= 1.221100D+00  Symmetry=e

 Vector   17  Occ=0.000000D+00  E= 1.221100D+00  Symmetry=e

         Total SCF energy =   -112.750150619418

 Vector    2  Occ=2.000000D+00  E=-1.135922D+01  Symmetry=a1

 Vector    3  Occ=2.000000D+00  E=-1.535601D+00  Symmetry=a1

 Vector    4  Occ=2.000000D+00  E=-8.038052D-01  Symmetry=a1

 Vector    5  Occ=2.000000D+00  E=-6.423730D-01  Symmetry=e

 Vector    6  Occ=2.000000D+00  E=-6.423730D-01  Symmetry=e

 Vector    7  Occ=2.000000D+00  E=-5.465712D-01  Symmetry=a1

 Vector    8  Occ=0.000000D+00  E= 1.621879D-01  Symmetry=e

 Vector    9  Occ=0.000000D+00  E= 1.621879D-01  Symmetry=e

 Vector   10  Occ=0.000000D+00  E= 3.837905D-01  Symmetry=a1

 Vector   11  Occ=0.000000D+00  E= 6.728975D-01  Symmetry=e

 Vector   12  Occ=0.000000D+00  E= 6.728975D-01  Symmetry=e

 Vector   13  Occ=0.000000D+00  E= 7.283401D-01  Symmetry=a1

 Vector   14  Occ=0.000000D+00  E= 1.030574D+00  Symmetry=a1

 Vector   15  Occ=0.000000D+00  E= 1.077880D+00  Symmetry=a1

 Vector   16  Occ=0.000000D+00  E= 1.221226D+00  Symmetry=e

 Vector   17  Occ=0.000000D+00  E= 1.221226D+00  Symmetry=e

@    2    -112.75015062 -1.4D-05  0.00003  0.00003  0.00122  0.00211      0.9
         Total SCF energy =   -112.750150619557

 Vector    2  Occ=2.000000D+00  E=-1.135922D+01  Symmetry=a1

 Vector    3  Occ=2.000000D+00  E=-1.535592D+00  Symmetry=a1

 Vector    4  Occ=2.000000D+00  E=-8.038028D-01  Symmetry=a1

 Vector    5  Occ=2.000000D+00  E=-6.423671D-01  Symmetry=e

 Vector    6  Occ=2.000000D+00  E=-6.423671D-01  Symmetry=e

 Vector    7  Occ=2.000000D+00  E=-5.465708D-01  Symmetry=a1

 Vector    8  Occ=0.000000D+00  E= 1.621853D-01  Symmetry=e

 Vector    9  Occ=0.000000D+00  E= 1.621853D-01  Symmetry=e

 Vector   10  Occ=0.000000D+00  E= 3.837904D-01  Symmetry=a1

 Vector   11  Occ=0.000000D+00  E= 6.728983D-01  Symmetry=e

 Vector   12  Occ=0.000000D+00  E= 6.728983D-01  Symmetry=e

 Vector   13  Occ=0.000000D+00  E= 7.283405D-01  Symmetry=a1

 Vector   14  Occ=0.000000D+00  E= 1.030573D+00  Symmetry=a1

 Vector   15  Occ=0.000000D+00  E= 1.077870D+00  Symmetry=a1

 Vector   16  Occ=0.000000D+00  E= 1.221228D+00  Symmetry=e

 Vector   17  Occ=0.000000D+00  E= 1.221228D+00  Symmetry=e

       Multipole analysis of the density wrt the origin
       ------------------------------------------------

     L   x y z        total         open         nuclear
     -   - - -        -----         ----         -------
     0   0 0 0     -0.000000      0.000000     14.000000

     1   1 0 0      0.000000      0.000000      0.000000
     1   0 1 0     -0.000000      0.000000      0.000000
     1   0 0 1     -0.057358      0.000000      0.208142

     2   2 0 0     -7.424020      0.000000      0.000000
     2   1 1 0     -0.000000      0.000000      0.000000
     2   1 0 1     -0.000000      0.000000      0.000000
     2   0 2 0     -7.424020      0.000000      0.000000
     2   0 1 1      0.000000      0.000000      0.000000

         Total SCF energy =   -112.750150619557
@    3    -112.75015062 -1.4D-10  0.00001  0.00001  0.00001  0.00001      1.1
@    3    -112.75015062 -1.4D-10  0.00001  0.00001  0.00001  0.00001      1.1

 Output coordinates in angstroms (scale by  1.889725989 to convert to a.u.)

  No.       Tag          Charge          X              Y              Z
 ---- ---------------- ---------- -------------- -------------- --------------
    1 C                    6.0000     0.00000000     0.00000000    -0.62650046
    2 O                    8.0000     0.00000000     0.00000000     0.48364332

 Total times  cpu:        1.1s     wall:        1.1s
