============================== echo of input deck ==============================
echo

start molecule

title "CO"
memory total 2 gb

charge 0
geometry units angstrom print xyz
 C 0.00000 0.00000 0.00000
 O 0.00000 0.00000 0.75
end

basis spherical
 * library cc-pVDZ
end

task scf optimize
================================================================================

         Total SCF energy =   -111.841897571821
@ Step       Energy      Delta E   Gmax     Grms     Xrms     Xmax   Walltime
@ ---- ---------------- -------- -------- -------- -------- -------- --------
@    0    -111.84189757  0.0D+00  4.11239  4.11239  0.00000  0.00000      0.3
         Total SCF energy =   -112.568776624335
         Total SCF energy =   -112.636232555756
@    1    -112.63623256 -7.9D-01  0.87694  0.87694  0.10540  0.18256      0.6
         Total SCF energy =   -112.703107057628
         Total SCF energy =   -112.741533200295
@    2    -112.74153320 -1.1D-01  0.18341  0.18341  0.06226  0.10784      0.8
         Total SCF energy =   -112.748676118278

 Vector    2  Occ=2.000000D+00  E=-1.134992D+01  Symmetry=a1

 Vector    3  Occ=2.000000D+00  E=-1.551626D+00  Symmetry=a1

 Vector    4  Occ=2.000000D+00  E=-8.059429D-01  Symmetry=a1

 Vector    5  Occ=2.000000D+00  E=-6.526381D-01  Symmetry=e

 Vector    6  Occ=2.000000D+00  E=-6.526381D-01  Symmetry=e

 Vector    7  Occ=2.000000D+00  E=-5.435361D-01  Symmetry=a1

 Vector    8  Occ=0.000000D+00  E= 1.718056D-01  Symmetry=e

 Vector    9  Occ=0.000000D+00  E= 1.718056D-01  Symmetry=e

 Vector   10  Occ=0.000000D+00  E= 3.851825D-01  Symmetry=a1

 Vector   11  Occ=0.000000D+00  E= 6.737779D-01  Symmetry=e

 Vector   12  Occ=0.000000D+00  E= 6.737779D-01  Symmetry=e

 Vector   13  Occ=0.000000D+00  E= 7.304337D-01  Symmetry=a1

 Vector   14  Occ=0.000000D+00  E= 1.031126D+00  Symmetry=a1

 Vector   15  Occ=0.000000D+00  E= 1.114184D+00  Symmetry=a1

 Vector   16  Occ=0.000000D+00  E= 1.217173D+00  Symmetry=e

 Vector   17  Occ=0.000000D+00  E= 1.217173D+00  Symmetry=e

         Total SCF energy =   -112.750075193846

 Vector    2  Occ=2.000000D+00  E=-1.135708D+01  Symmetry=a1

 Vector    3  Occ=2.000000D+00  E=-1.539277D+00  Symmetry=a1

 Vector    4  Occ=2.000000D+00  E=-8.042969D-01  Symmetry=a1

 Vector    5  Occ=2.000000D+00  E=-6.447067D-01  Symmetry=e

 Vector    6  Occ=2.000000D+00  E=-6.447067D-01  Symmetry=e

 Vector    7  Occ=2.000000D+00  E=-5.458938D-01  Symmetry=a1

 Vector    8  Occ=0.000000D+00  E= 1.643869D-01  Symmetry=e

 Vector    9  Occ=0.000000D+00  E= 1.643869D-01  Symmetry=e

 Vector   10  Occ=0.000000D+00  E= 3.841224D-01  Symmetry=a1

 Vector   11  Occ=0.000000D+00  E= 6.730968D-01  Symmetry=e

 Vector   12  Occ=0.000000D+00  E= 6.730968D-01  Symmetry=e

 Vector   13  Occ=0.000000D+00  E= 7.288427D-01  Symmetry=a1

 Vector   14  Occ=0.000000D+00  E= 1.031540D+00  Symmetry=a1

 Vector   15  Occ=0.000000D+00  E= 1.085270D+00  Symmetry=a1

 Vector   16  Occ=0.000000D+00  E= 1.220297D+00  Symmetry=e

 Vector   17  Occ=0.000000D+00  E= 1.220297D+00  Symmetry=e

@    3    -112.75007519 -8.5D-03  0.01539  0.01539  0.02596  0.04496      1.1
         Total SCF energy =   -112.750148601723

 Vector    2  Occ=2.000000D+00  E=-1.135887D+01  Symmetry=a1

 Vector    3  Occ=2.000000D+00  E=-1.536199D+00  Symmetry=a1

 Vector    4  Occ=2.000000D+00  E=-8.038849D-01  Symmetry=a1

 Vector    5  Occ=2.000000D+00  E=-6.427517D-01  Symmetry=e

 Vector    6  Occ=2.000000D+00  E=-6.427517D-01  Symmetry=e

 Vector    7  Occ=2.000000D+00  E=-5.464616D-01  Symmetry=a1

 Vector    8  Occ=0.000000D+00  E= 1.625456D-01  Symmetry=e

 Vector    9  Occ=0.000000D+00  E= 1.625456D-01  Symmetry=e

 Vector   10  Occ=0.000000D+00  E= 3.838451D-01  Symmetry=a1

 Vector   11  Occ=0.000000D+00  E= 6.729300D-01  Symmetry=e

 Vector   12  Occ=0.000000D+00  E= 6.729300D-01  Symmetry=e

 Vector   13  Occ=0.000000D+00  E= 7.284228D-01  Symmetry=a1

 Vector   14  Occ=0.000000D+00  E= 1.030788D+00  Symmetry=a1

 Vector   15  Occ=0.000000D+00  E= 1.079022D+00  Symmetry=a1

 Vector   16  Occ=0.000000D+00  E= 1.221075D+00  Symmetry=e

 Vector   17  Occ=0.000000D+00  E= 1.221075D+00  Symmetry=e

         Total SCF energy =   -112.750150615083

 Vector    2  Occ=2.000000D+00  E=-1.135920D+01  Symmetry=a1

 Vector    3  Occ=2.000000D+00  E=-1.535624D+00  Symmetry=a1

 Vector    4  Occ=2.000000D+00  E=-8.038082D-01  Symmetry=a1

 Vector    5  Occ=2.000000D+00  E=-6.423872D-01  Symmetry=e

 Vector    6  Occ=2.000000D+00  E=-6.423872D-01  Symmetry=e

 Vector    7  Occ=2.000000D+00  E=-5.465670D-01  Symmetry=a1

 Vector    8  Occ=0.000000D+00  E= 1.622013D-01  Symmetry=e

 Vector    9  Occ=0.000000D+00  E= 1.622013D-01  Symmetry=e

 Vector   10  Occ=0.000000D+00  E= 3.837925D-01  Symmetry=a1

 Vector   11  Occ=0.000000D+00  E= 6.728987D-01  Symmetry=e

 Vector   12  Occ=0.000000D+00  E= 6.728987D-01  Symmetry=e

 Vector   13  Occ=0.000000D+00  E= 7.283433D-01  Symmetry=a1

 Vector   14  Occ=0.000000D+00  E= 1.030583D+00  Symmetry=a1

 Vector   15  Occ=0.000000D+00  E= 1.077923D+00  Symmetry=a1

 Vector   16  Occ=0.000000D+00  E= 1.221220D+00  Symmetry=e

 Vector   17  Occ=0.000000D+00  E= 1.221220D+00  Symmetry=e

@    4    -112.75015062 -7.5D-05  0.00012  0.00012  0.00282  0.00489      1.3
         Total SCF energy =   -112.750150619629

 Vector    2  Occ=2.000000D+00  E=-1.135922D+01  Symmetry=a1

 Vector    3  Occ=2.000000D+00  E=-1.535595D+00  Symmetry=a1

 Vector    4  Occ=2.000000D+00  E=-8.038041D-01  Symmetry=a1

 Vector    5  Occ=2.000000D+00  E=-6.423691D-01  Symmetry=e

 Vector    6  Occ=2.000000D+00  E=-6.423691D-01  Symmetry=e

 Vector    7  Occ=2.000000D+00  E=-5.465724D-01  Symmetry=a1

 Vector    8  Occ=0.000000D+00  E= 1.621842D-01  Symmetry=e

 Vector    9  Occ=0.000000D+00  E= 1.621842D-01  Symmetry=e

 Vector   10  Occ=0.000000D+00  E= 3.837899D-01  Symmetry=a1

 Vector   11  Occ=0.000000D+00  E= 6.728970D-01  Symmetry=e

 Vector   12  Occ=0.000000D+00  E= 6.728970D-01  Symmetry=e

 Vector   13  Occ=0.000000D+00  E= 7.283392D-01  Symmetry=a1

 Vector   14  Occ=0.000000D+00  E= 1.030572D+00  Symmetry=a1

 Vector   15  Occ=0.000000D+00  E= 1.077869D+00  Symmetry=a1

 Vector   16  Occ=0.000000D+00  E= 1.221227D+00  Symmetry=e

 Vector   17  Occ=0.000000D+00  E= 1.221227D+00  Symmetry=e

       Multipole analysis of the density wrt the origin
       ------------------------------------------------

     L   x y z        total         open         nuclear
     -   - - -        -----         ----         -------
     0   0 0 0     -0.000000      0.000000     14.000000

     1   1 0 0      0.000000      0.000000      0.000000
     1   0 1 0      0.000000      0.000000      0.000000
     1   0 0 1     -0.057367      0.000000      0.680572

     2   2 0 0     -7.424034      0.000000      0.000000
     2   1 1 0      0.000000      0.000000      0.000000
     2   1 0 1      0.000000      0.000000      0.000000
     2   0 2 0     -7.424034      0.000000      0.000000
     2   0 1 1      0.000000      0.000000      0.000000

         Total SCF energy =   -112.750150619629
@    5    -112.75015062 -4.5D-09  0.00000  0.00000  0.00002  0.00004      1.5
@    5    -112.75015062 -4.5D-09  0.00000  0.00000  0.00002  0.00004      1.5

 Output coordinates in angstroms (scale by  1.889725989 to convert to a.u.)

  No.       Tag          Charge          X              Y              Z
 ---- ---------------- ---------- -------------- -------------- --------------
    1 C                    6.0000     0.00000000     0.00000000    -0.60864299
    2 O                    8.0000     0.00000000     0.00000000     0.50150013

 Total times  cpu:        1.5s     wall:        1.5s
