============================== echo of input deck ==============================
echo

start molecule

title "formaldehydeNotOptimized"
memory total 4 gb

charge 0
geometry units angstrom print xyz
 C  0.00000024     0.25211309     0.00000000
 O -0.00000001    -0.92995152     0.00000000
 H -0.00000012     0.83891922     0.93253272
 H -0.00000012     0.83891922    -0.93253272
end

basis spherical
* library aug-cc-PVTZ
end

task mp2
================================================================================

 Output coordinates in angstroms (scale by  1.889725989 to convert to a.u.)

  No.       Tag          Charge          X              Y              Z
 ---- ---------------- ---------- -------------- -------------- --------------
    1 C                    6.0000     0.00000000     0.00000000    -0.51768154
    2 O                    8.0000     0.00000000     0.00000000     0.66438307
    3 H                    1.0000     0.00000000     0.93253272    -1.10448767
    4 H                    1.0000     0.00000000    -0.93253272    -1.10448767

         Total SCF energy =   -113.915194056707

 Vector    2  Occ=2.000000D+00  E=-1.133751D+01  Symmetry=a1

 Vector    3  Occ=2.000000D+00  E=-1.422702D+00  Symmetry=a1

 Vector    4  Occ=2.000000D+00  E=-8.676089D-01  Symmetry=a1

 Vector    5  Occ=2.000000D+00  E=-6.994939D-01  Symmetry=b2

 Vector    6  Occ=2.000000D+00  E=-6.594433D-01  Symmetry=a1

 Vector    7  Occ=2.000000D+00  E=-5.477989D-01  Symmetry=b1

 Vector    8  Occ=2.000000D+00  E=-4.401564D-01  Symmetry=b2

 Vector    9  Occ=0.000000D+00  E= 2.664694D-02  Symmetry=a1

 Vector   10  Occ=0.000000D+00  E= 4.204997D-02  Symmetry=b2

 Vector   11  Occ=0.000000D+00  E= 6.369825D-02  Symmetry=b1

 Vector   12  Occ=0.000000D+00  E= 7.633314D-02  Symmetry=a1

 Vector   13  Occ=0.000000D+00  E= 1.330200D-01  Symmetry=b2

 Vector   14  Occ=0.000000D+00  E= 1.334160D-01  Symmetry=a1

 Vector   15  Occ=0.000000D+00  E= 1.338078D-01  Symmetry=b1

 Vector   16  Occ=0.000000D+00  E= 1.742312D-01  Symmetry=a1

 Vector   17  Occ=0.000000D+00  E= 1.992449D-01  Symmetry=b2

 Vector   18  Occ=0.000000D+00  E= 2.109227D-01  Symmetry=b1

 Vector   19  Occ=0.000000D+00  E= 2.183265D-01  Symmetry=a1

 Vector   20  Occ=0.000000D+00  E= 2.551621D-01  Symmetry=a2

 Vector   21  Occ=0.000000D+00  E= 2.566334D-01  Symmetry=a1

 Vector   22  Occ=0.000000D+00  E= 2.815748D-01  Symmetry=b2

 Vector   23  Occ=0.000000D+00  E= 3.218371D-01  Symmetry=b1

 Vector   24  Occ=0.000000D+00  E= 3.386345D-01  Symmetry=b2

 Vector   25  Occ=0.000000D+00  E= 3.387220D-01  Symmetry=a1

 Vector   26  Occ=0.000000D+00  E= 3.589751D-01  Symmetry=a1

 Vector   27  Occ=0.000000D+00  E= 3.889672D-01  Symmetry=a2

 Vector   28  Occ=0.000000D+00  E= 3.889831D-01  Symmetry=a1

 Vector   29  Occ=0.000000D+00  E= 3.962642D-01  Symmetry=b2

 Vector   30  Occ=0.000000D+00  E= 4.211792D-01  Symmetry=b1

 Vector   31  Occ=0.000000D+00  E= 4.848925D-01  Symmetry=a1

 Vector   32  Occ=0.000000D+00  E= 5.015633D-01  Symmetry=b2

       Multipole analysis of the density wrt the origin
       ------------------------------------------------

     L   x y z        total         open         nuclear
     -   - - -        -----         ----         -------
     0   0 0 0     -0.000000      0.000000     16.000000

     1   1 0 0      0.000000      0.000000      0.000000
     1   0 1 0     -0.000000      0.000000      0.000000
     1   0 0 1     -1.072706      0.000000      0.000000

     2   2 0 0     -8.685277      0.000000      0.000000
     2   1 1 0     -0.000000      0.000000      0.000000
     2   1 0 1      0.000000      0.000000      0.000000
     2   0 2 0     -8.507382      0.000000      6.210918
     2   0 1 1      0.000000      0.000000      0.000000

          Total MP2 energy          -114.347292401326
 Total times  cpu:       12.5s     wall:       12.5s
