============================== echo of input deck ==============================
echo

start molecule

title "formaldehydeNotOptimized"
memory total 4 gb

charge 0
geometry units angstrom print xyz
 C  0.00000024     0.25211309     0.00000000
 O -0.00000001    -0.92995152     0.00000000
 H -0.00000012     0.83891922     0.93253272
 H -0.00000012     0.83891922    -0.93253272
end

basis spherical
* library aug-cc-PVTZ
end

task scf
================================================================================

 Output coordinates in angstroms (scale by  1.889725989 to convert to a.u.)

  No.       Tag          Charge          X              Y              Z
 ---- ---------------- ---------- -------------- -------------- --------------
    1 C                    6.0000     0.00000000     0.00000000    -0.51768154
    2 O                    8.0000     0.00000000     0.00000000     0.66438307
    3 H                    1.0000     0.00000000     0.93253272    -1.10448767
    4 H                    1.0000     0.00000000    -0.93253272    -1.10448767

         Total SCF energy =   -113.915194056214

 Vector    2  Occ=2.000000D+00  E=-1.133751D+01  Symmetry=a1

 Vector    3  Occ=2.000000D+00  E=-1.422704D+00  Symmetry=a1

 Vector    4  Occ=2.000000D+00  E=-8.676086D-01  Symmetry=a1

 Vector    5  Occ=2.000000D+00  E=-6.994939D-01  Symmetry=b2

 Vector    6  Occ=2.000000D+00  E=-6.594424D-01  Symmetry=a1

 Vector    7  Occ=2.000000D+00  E=-5.477991D-01  Symmetry=b1

 Vector    8  Occ=2.000000D+00  E=-4.401591D-01  Symmetry=b2

 Vector    9  Occ=0.000000D+00  E= 2.664681D-02  Symmetry=a1

 Vector   10  Occ=0.000000D+00  E= 4.204977D-02  Symmetry=b2

 Vector   11  Occ=0.000000D+00  E= 6.369816D-02  Symmetry=b1

 Vector   12  Occ=0.000000D+00  E= 7.633317D-02  Symmetry=a1

 Vector   13  Occ=0.000000D+00  E= 1.330198D-01  Symmetry=b2

 Vector   14  Occ=0.000000D+00  E= 1.334159D-01  Symmetry=a1

 Vector   15  Occ=0.000000D+00  E= 1.338081D-01  Symmetry=b1

 Vector   16  Occ=0.000000D+00  E= 1.742314D-01  Symmetry=a1

 Vector   17  Occ=0.000000D+00  E= 1.992451D-01  Symmetry=b2

 Vector   18  Occ=0.000000D+00  E= 2.109229D-01  Symmetry=b1

 Vector   19  Occ=0.000000D+00  E= 2.183266D-01  Symmetry=a1

 Vector   20  Occ=0.000000D+00  E= 2.551620D-01  Symmetry=a2

 Vector   21  Occ=0.000000D+00  E= 2.566333D-01  Symmetry=a1

 Vector   22  Occ=0.000000D+00  E= 2.815750D-01  Symmetry=b2

 Vector   23  Occ=0.000000D+00  E= 3.218372D-01  Symmetry=b1

 Vector   24  Occ=0.000000D+00  E= 3.386342D-01  Symmetry=b2

 Vector   25  Occ=0.000000D+00  E= 3.387213D-01  Symmetry=a1

 Vector   26  Occ=0.000000D+00  E= 3.589745D-01  Symmetry=a1

 Vector   27  Occ=0.000000D+00  E= 3.889671D-01  Symmetry=a2

 Vector   28  Occ=0.000000D+00  E= 3.889826D-01  Symmetry=a1

 Vector   29  Occ=0.000000D+00  E= 3.962642D-01  Symmetry=b2

 Vector   30  Occ=0.000000D+00  E= 4.211793D-01  Symmetry=b1

 Vector   31  Occ=0.000000D+00  E= 4.848919D-01  Symmetry=a1

 Vector   32  Occ=0.000000D+00  E= 5.015631D-01  Symmetry=b2

       Multipole analysis of the density wrt the origin
       ------------------------------------------------

     L   x y z        total         open         nuclear
     -   - - -        -----         ----         -------
     0   0 0 0     -0.000000      0.000000     16.000000

     1   1 0 0      0.000000      0.000000      0.000000
     1   0 1 0     -0.000000      0.000000      0.000000
     1   0 0 1     -1.072731      0.000000      0.000000

     2   2 0 0     -8.685314      0.000000      0.000000
     2   1 1 0      0.000000      0.000000      0.000000
     2   1 0 1     -0.000000      0.000000      0.000000
     2   0 2 0     -8.507290      0.000000      6.210918
     2   0 1 1     -0.000000      0.000000      0.000000

 Total times  cpu:        1.5s     wall:        1.5s
