============================== echo of input deck ==============================
echo

start molecule

title "H2"
charge 0

memory total 2 gb

geometry units angstrom noautoz
symmetry group d2h
 H 0.00000 0.00000 4.1
end

basis spherical
 * library aug-cc-pVDZ
end

task scf
================================================================================

 Output coordinates in angstroms (scale by  1.889725989 to convert to a.u.)

  No.       Tag          Charge          X              Y              Z
 ---- ---------------- ---------- -------------- -------------- --------------
    1 H                    1.0000     0.00000000     0.00000000     4.10000000
    2 H                    1.0000     0.00000000     0.00000000    -4.10000000

         Total SCF energy =     -0.746484565929

 Vector    1  Occ=2.000000D+00  E=-2.610112D-01  Symmetry=ag

 Vector    2  Occ=0.000000D+00  E=-1.963466D-01  Symmetry=b1u

 Vector    3  Occ=0.000000D+00  E= 7.864485D-02  Symmetry=ag

 Vector    4  Occ=0.000000D+00  E= 9.030684D-02  Symmetry=b1u

 Vector    5  Occ=0.000000D+00  E= 2.853274D-01  Symmetry=ag

 Vector    6  Occ=0.000000D+00  E= 2.855126D-01  Symmetry=b3u

 Vector    7  Occ=0.000000D+00  E= 2.855126D-01  Symmetry=b2u

 Vector    8  Occ=0.000000D+00  E= 2.858893D-01  Symmetry=b3g

 Vector    9  Occ=0.000000D+00  E= 2.858893D-01  Symmetry=b2g

 Vector   10  Occ=0.000000D+00  E= 2.861615D-01  Symmetry=b1u

 Vector   11  Occ=0.000000D+00  E= 7.369965D-01  Symmetry=ag

       Multipole analysis of the density wrt the origin
       ------------------------------------------------

     L   x y z        total         open         nuclear
     -   - - -        -----         ----         -------
     0   0 0 0     -0.000000      0.000000      2.000000

     1   1 0 0      0.000000      0.000000      0.000000
     1   0 1 0      0.000000      0.000000      0.000000
     1   0 0 1     -0.000000      0.000000      0.000000

     2   2 0 0     -3.219404      0.000000      0.000000
     2   1 1 0      0.000000      0.000000      0.000000
     2   1 0 1      0.000000      0.000000      0.000000
     2   0 2 0     -3.219404      0.000000      0.000000
     2   0 1 1      0.000000      0.000000      0.000000

 Total times  cpu:        0.0s     wall:        0.0s
