============================== echo of input deck ==============================
echo

start molecule

title "CO"
memory total 2 gb

charge 0
geometry units angstrom print xyz
 C 0.00000 0.00000 0.00000
 O 0.00000 0.00000 2.25
end

basis spherical
 * library cc-pVDZ
end

task scf
================================================================================

 Output coordinates in angstroms (scale by  1.889725989 to convert to a.u.)

  No.       Tag          Charge          X              Y              Z
 ---- ---------------- ---------- -------------- -------------- --------------
    1 C                    6.0000     0.00000000     0.00000000    -1.28571429
    2 O                    8.0000     0.00000000     0.00000000     0.96428571

         Total SCF energy =   -112.299963155686

 Vector    2  Occ=2.000000D+00  E=-1.144789D+01  Symmetry=a1

 Vector    3  Occ=2.000000D+00  E=-1.186154D+00  Symmetry=a1

 Vector    4  Occ=2.000000D+00  E=-7.760454D-01  Symmetry=a1

 Vector    5  Occ=2.000000D+00  E=-4.937443D-01  Symmetry=e

 Vector    6  Occ=2.000000D+00  E=-4.937443D-01  Symmetry=e

 Vector    7  Occ=2.000000D+00  E=-4.069977D-01  Symmetry=a1

 Vector    8  Occ=0.000000D+00  E= 6.666712D-03  Symmetry=e

 Vector    9  Occ=0.000000D+00  E= 6.666712D-03  Symmetry=e

 Vector   10  Occ=0.000000D+00  E= 9.453993D-02  Symmetry=a1

 Vector   11  Occ=0.000000D+00  E= 6.558194D-01  Symmetry=a1

 Vector   12  Occ=0.000000D+00  E= 6.713414D-01  Symmetry=e

 Vector   13  Occ=0.000000D+00  E= 6.713414D-01  Symmetry=e

 Vector   14  Occ=0.000000D+00  E= 7.633717D-01  Symmetry=a1

 Vector   15  Occ=0.000000D+00  E= 1.179797D+00  Symmetry=e

 Vector   16  Occ=0.000000D+00  E= 1.179797D+00  Symmetry=e

 Vector   17  Occ=0.000000D+00  E= 1.243970D+00  Symmetry=a1

       Multipole analysis of the density wrt the origin
       ------------------------------------------------

     L   x y z        total         open         nuclear
     -   - - -        -----         ----         -------
     0   0 0 0     -0.000000      0.000000     14.000000

     1   1 0 0     -0.000000      0.000000      0.000000
     1   0 1 0     -0.000000      0.000000      0.000000
     1   0 0 1     -0.804064      0.000000      0.000000

     2   2 0 0     -7.803306      0.000000      0.000000
     2   1 1 0     -0.000000      0.000000      0.000000
     2   1 0 1      0.000000      0.000000      0.000000
     2   0 2 0     -7.803306      0.000000      0.000000
     2   0 1 1      0.000000      0.000000      0.000000

 Total times  cpu:        0.1s     wall:        0.1s
