============================== echo of input deck ==============================
echo
start molecule
title "H2O"
charge 0
memory total 2 gb
geometry units angstrom
H 0.86681 0.60144 0.00000
H -0.86681 0.60144 0.00000
O 0.00000 -0.07579 0.00000
H 0.86681 0.60144 20.00000
H -0.86681 0.60144 20.00000
O 0.00000 -0.07579 20.00000
end
basis spherical
* library cc-pVDZ
end
task scf
================================================================================

 Output coordinates in angstroms (scale by  1.889725989 to convert to a.u.)

  No.       Tag          Charge          X              Y              Z
 ---- ---------------- ---------- -------------- -------------- --------------
    1 H                    1.0000     0.86681000    10.00000000     0.54178400
    2 H                    1.0000    -0.86681000    10.00000000     0.54178400
    3 O                    8.0000     0.00000000    10.00000000    -0.13544600
    4 H                    1.0000     0.86681000   -10.00000000     0.54178400
    5 H                    1.0000    -0.86681000   -10.00000000     0.54178400
    6 O                    8.0000     0.00000000   -10.00000000    -0.13544600

         Total SCF energy =   -151.979577979437

 Vector    2  Occ=2.000000D+00  E=-2.057473D+01  Symmetry=a1

 Vector    3  Occ=2.000000D+00  E=-1.277539D+00  Symmetry=a1

 Vector    4  Occ=2.000000D+00  E=-1.277539D+00  Symmetry=b2

 Vector    5  Occ=2.000000D+00  E=-6.298835D-01  Symmetry=a2

 Vector    6  Occ=2.000000D+00  E=-6.298835D-01  Symmetry=b1

 Vector    7  Occ=2.000000D+00  E=-5.416534D-01  Symmetry=a1

 Vector    8  Occ=2.000000D+00  E=-5.416534D-01  Symmetry=b2

 Vector    9  Occ=2.000000D+00  E=-4.865172D-01  Symmetry=b2

 Vector   10  Occ=2.000000D+00  E=-4.865172D-01  Symmetry=a1

 Vector   11  Occ=0.000000D+00  E= 1.576379D-01  Symmetry=b2

 Vector   12  Occ=0.000000D+00  E= 1.576379D-01  Symmetry=a1

 Vector   13  Occ=0.000000D+00  E= 2.295280D-01  Symmetry=a2

 Vector   14  Occ=0.000000D+00  E= 2.295280D-01  Symmetry=b1

 Vector   15  Occ=0.000000D+00  E= 7.047018D-01  Symmetry=a2

 Vector   16  Occ=0.000000D+00  E= 7.047018D-01  Symmetry=b1

 Vector   17  Occ=0.000000D+00  E= 7.445827D-01  Symmetry=a1

 Vector   18  Occ=0.000000D+00  E= 7.445827D-01  Symmetry=b2

 Vector   19  Occ=0.000000D+00  E= 1.170842D+00  Symmetry=a1

 Vector   20  Occ=0.000000D+00  E= 1.170842D+00  Symmetry=b2

       Multipole analysis of the density wrt the origin
       ------------------------------------------------

     L   x y z        total         open         nuclear
     -   - - -        -----         ----         -------
     0   0 0 0     -0.000000      0.000000     20.000000

     1   1 0 0      0.000000      0.000000      0.000000
     1   0 1 0      0.000000      0.000000      0.000000
     1   0 0 1      1.712487      0.000000      0.000000

     2   2 0 0     -5.709485      0.000000     10.732613
     2   1 1 0      0.000000      0.000000      0.000000
     2   1 0 1      0.000000      0.000000      0.000000
     2   0 2 0    -10.930606      0.000000   7142.128624
     2   0 1 1      0.000000      0.000000      0.000000

 Total times  cpu:        0.1s     wall:        0.1s
