============================== echo of input deck ==============================
echo
start molecule
title "H2O"
charge 0
memory total 2 gb
geometry units angstrom
H 0.86681 0.60144 0.00000
H -0.86681 0.60144 0.00000
O 0.00000 -0.07579 0.00000
H 0.86681 0.60144 50.00000
H -0.86681 0.60144 50.00000
O 0.00000 -0.07579 50.00000
end
basis spherical
* library cc-pVDZ
end
tce
 ccsd
end

task tce energy
================================================================================

 Output coordinates in angstroms (scale by  1.889725989 to convert to a.u.)

  No.       Tag          Charge          X              Y              Z
 ---- ---------------- ---------- -------------- -------------- --------------
    1 H                    1.0000     0.86681000    25.00000000     0.54178400
    2 H                    1.0000    -0.86681000    25.00000000     0.54178400
    3 O                    8.0000     0.00000000    25.00000000    -0.13544600
    4 H                    1.0000     0.86681000   -25.00000000     0.54178400
    5 H                    1.0000    -0.86681000   -25.00000000     0.54178400
    6 O                    8.0000     0.00000000   -25.00000000    -0.13544600

         Total SCF energy =   -151.979590872902

 Vector    2  Occ=2.000000D+00  E=-2.057475D+01  Symmetry=b2

 Vector    3  Occ=2.000000D+00  E=-1.277564D+00  Symmetry=b2

 Vector    4  Occ=2.000000D+00  E=-1.277564D+00  Symmetry=a1

 Vector    5  Occ=2.000000D+00  E=-6.299093D-01  Symmetry=a2

 Vector    6  Occ=2.000000D+00  E=-6.299093D-01  Symmetry=b1

 Vector    7  Occ=2.000000D+00  E=-5.416828D-01  Symmetry=a1

 Vector    8  Occ=2.000000D+00  E=-5.416828D-01  Symmetry=b2

 Vector    9  Occ=2.000000D+00  E=-4.865437D-01  Symmetry=b2

 Vector   10  Occ=2.000000D+00  E=-4.865437D-01  Symmetry=a1

 Vector   11  Occ=0.000000D+00  E= 1.576223D-01  Symmetry=b2

 Vector   12  Occ=0.000000D+00  E= 1.576223D-01  Symmetry=a1

 Vector   13  Occ=0.000000D+00  E= 2.295135D-01  Symmetry=b1

 Vector   14  Occ=0.000000D+00  E= 2.295135D-01  Symmetry=a2

 Vector   15  Occ=0.000000D+00  E= 7.046798D-01  Symmetry=a2

 Vector   16  Occ=0.000000D+00  E= 7.046798D-01  Symmetry=b1

 Vector   17  Occ=0.000000D+00  E= 7.445649D-01  Symmetry=b2

 Vector   18  Occ=0.000000D+00  E= 7.445649D-01  Symmetry=a1

 Vector   19  Occ=0.000000D+00  E= 1.170812D+00  Symmetry=a1

 Vector   20  Occ=0.000000D+00  E= 1.170812D+00  Symmetry=b2

       Multipole analysis of the density wrt the origin
       ------------------------------------------------

     L   x y z        total         open         nuclear
     -   - - -        -----         ----         -------
     0   0 0 0     -0.000000      0.000000     20.000000

     1   1 0 0      0.000000      0.000000      0.000000
     1   0 1 0     -0.000000      0.000000      0.000000
     1   0 0 1      1.712685      0.000000      0.000000

     2   2 0 0     -5.709248      0.000000     10.732613
     2   1 1 0     -0.000000      0.000000      0.000000
     2   1 0 1      0.000000      0.000000      0.000000
     2   0 2 0    -10.930087      0.000000  44638.303899
     2   0 1 1     -0.000000      0.000000      0.000000

 CCSD total energy / hartree       =      -152.427411117829365
 Total times  cpu:        1.2s     wall:        1.2s
