============================== echo of input deck ==============================
echo

start molecule

title "CO"
memory total 2 gb

charge 0
geometry units angstrom print xyz
 C 0.00000 0.00000 0.00000
 O 0.00000 0.00000 0.75
end

basis spherical
 * library cc-pVDZ
end

task scf
================================================================================

 Output coordinates in angstroms (scale by  1.889725989 to convert to a.u.)

  No.       Tag          Charge          X              Y              Z
 ---- ---------------- ---------- -------------- -------------- --------------
    1 C                    6.0000     0.00000000     0.00000000    -0.42857143
    2 O                    8.0000     0.00000000     0.00000000     0.32142857

         Total SCF energy =   -111.841897571821

 Vector    2  Occ=2.000000D+00  E=-1.127550D+01  Symmetry=a1

 Vector    3  Occ=2.000000D+00  E=-1.738138D+00  Symmetry=a1

 Vector    4  Occ=2.000000D+00  E=-8.683752D-01  Symmetry=e

 Vector    5  Occ=2.000000D+00  E=-8.683752D-01  Symmetry=e

 Vector    6  Occ=2.000000D+00  E=-8.127908D-01  Symmetry=a1

 Vector    7  Occ=2.000000D+00  E=-4.816802D-01  Symmetry=a1

 Vector    8  Occ=0.000000D+00  E= 3.130632D-01  Symmetry=e

 Vector    9  Occ=0.000000D+00  E= 3.130632D-01  Symmetry=e

 Vector   10  Occ=0.000000D+00  E= 4.027572D-01  Symmetry=a1

 Vector   11  Occ=0.000000D+00  E= 7.002764D-01  Symmetry=a1

 Vector   12  Occ=0.000000D+00  E= 7.162215D-01  Symmetry=e

 Vector   13  Occ=0.000000D+00  E= 7.162215D-01  Symmetry=e

 Vector   14  Occ=0.000000D+00  E= 1.047023D+00  Symmetry=a1

 Vector   15  Occ=0.000000D+00  E= 1.188481D+00  Symmetry=e

 Vector   16  Occ=0.000000D+00  E= 1.188481D+00  Symmetry=e

 Vector   17  Occ=0.000000D+00  E= 1.343816D+00  Symmetry=b2

       Multipole analysis of the density wrt the origin
       ------------------------------------------------

     L   x y z        total         open         nuclear
     -   - - -        -----         ----         -------
     0   0 0 0     -0.000000      0.000000     14.000000

     1   1 0 0     -0.000000      0.000000      0.000000
     1   0 1 0     -0.000000      0.000000      0.000000
     1   0 0 1      0.525419      0.000000     -0.000000

     2   2 0 0     -6.513321      0.000000      0.000000
     2   1 1 0      0.000000      0.000000      0.000000
     2   1 0 1      0.000000      0.000000      0.000000
     2   0 2 0     -6.513321      0.000000      0.000000
     2   0 1 1      0.000000      0.000000      0.000000

 Total times  cpu:        0.2s     wall:        0.2s
