============================== echo of input deck ==============================
echo
start molecule
title "H2O"
charge 0
memory total 2 gb
geometry units angstrom
H 0.86681 0.60144 0.00000
H -0.86681 0.60144 0.00000
O 0.00000 -0.07579 0.00000
H 0.86681 0.60144 20.00000
H -0.86681 0.60144 20.00000
O 0.00000 -0.07579 20.00000
H 0.86681 0.60144 -20.00000
H -0.86681 0.60144 -20.00000
O 0.00000 -0.07579 -20.00000
end
basis spherical
* library cc-pVDZ
end
tce
 cisd
end

task tce energy
================================================================================

 Output coordinates in angstroms (scale by  1.889725989 to convert to a.u.)

  No.       Tag          Charge          X              Y              Z
 ---- ---------------- ---------- -------------- -------------- --------------
    1 H                    1.0000     0.86681000     0.00000000     0.54178400
    2 H                    1.0000    -0.86681000     0.00000000     0.54178400
    3 O                    8.0000     0.00000000     0.00000000    -0.13544600
    4 H                    1.0000     0.86681000   -20.00000000     0.54178400
    5 H                    1.0000    -0.86681000   -20.00000000     0.54178400
    6 O                    8.0000     0.00000000   -20.00000000    -0.13544600
    7 H                    1.0000     0.86681000    20.00000000     0.54178400
    8 H                    1.0000    -0.86681000    20.00000000     0.54178400
    9 O                    8.0000     0.00000000    20.00000000    -0.13544600

         Total SCF energy =   -227.969358382395

 Vector    4  Occ=2.000000D+00  E=-1.277535D+00  Symmetry=b2

 Vector    5  Occ=2.000000D+00  E=-1.277535D+00  Symmetry=a1

 Vector    6  Occ=2.000000D+00  E=-1.277511D+00  Symmetry=a1

 Vector    7  Occ=2.000000D+00  E=-6.298800D-01  Symmetry=b1

 Vector    8  Occ=2.000000D+00  E=-6.298800D-01  Symmetry=a2

 Vector    9  Occ=2.000000D+00  E=-6.298559D-01  Symmetry=b1

 Vector   10  Occ=2.000000D+00  E=-5.416496D-01  Symmetry=b2

 Vector   11  Occ=2.000000D+00  E=-5.416496D-01  Symmetry=a1

 Vector   12  Occ=2.000000D+00  E=-5.416221D-01  Symmetry=a1

 Vector   13  Occ=2.000000D+00  E=-4.865132D-01  Symmetry=a1

 Vector   14  Occ=2.000000D+00  E=-4.865132D-01  Symmetry=b2

 Vector   15  Occ=2.000000D+00  E=-4.864884D-01  Symmetry=b2

 Vector   16  Occ=0.000000D+00  E= 1.576399D-01  Symmetry=b2

 Vector   17  Occ=0.000000D+00  E= 1.576399D-01  Symmetry=a1

 Vector   18  Occ=0.000000D+00  E= 1.576545D-01  Symmetry=a1

 Vector   19  Occ=0.000000D+00  E= 2.295300D-01  Symmetry=a2

 Vector   20  Occ=0.000000D+00  E= 2.295300D-01  Symmetry=b1

 Vector   21  Occ=0.000000D+00  E= 2.295435D-01  Symmetry=b1

 Vector   22  Occ=0.000000D+00  E= 7.047046D-01  Symmetry=a2

 Vector   23  Occ=0.000000D+00  E= 7.047046D-01  Symmetry=b1

 Vector   24  Occ=0.000000D+00  E= 7.047251D-01  Symmetry=b1

 Vector   25  Occ=0.000000D+00  E= 7.445849D-01  Symmetry=b2

       Multipole analysis of the density wrt the origin
       ------------------------------------------------

     L   x y z        total         open         nuclear
     -   - - -        -----         ----         -------
     0   0 0 0     -0.000000      0.000000     30.000000

     1   1 0 0     -0.000000      0.000000      0.000000
     1   0 1 0     -0.000000      0.000000      0.000000
     1   0 0 1      2.568612      0.000000      0.000000

     2   2 0 0     -8.564376      0.000000     16.098920
     2   1 1 0     -0.000000      0.000000      0.000000
     2   1 0 1      0.000000      0.000000      0.000000
     2   0 2 0    -16.396264      0.000000  28568.514495
     2   0 1 1      0.000000      0.000000      0.000000

 Total times  cpu:        3.0s     wall:        3.0s
