============================== echo of input deck ==============================
echo

start molecule

title "formaldehydeNotOptimized"
memory total 4 gb

charge 0
geometry units angstrom print xyz
 C  0.00000024     0.25211309     0.00000000
 O -0.00000001    -0.92995152     0.00000000
 H -0.00000012     0.83891922     0.93253272
 H -0.00000012     0.83891922    -0.93253272
end

basis spherical
* library aug-cc-PVDZ
end

task scf
================================================================================

 Output coordinates in angstroms (scale by  1.889725989 to convert to a.u.)

  No.       Tag          Charge          X              Y              Z
 ---- ---------------- ---------- -------------- -------------- --------------
    1 C                    6.0000     0.00000000     0.00000000    -0.51768154
    2 O                    8.0000     0.00000000     0.00000000     0.66438307
    3 H                    1.0000     0.00000000     0.93253272    -1.10448767
    4 H                    1.0000     0.00000000    -0.93253272    -1.10448767

         Total SCF energy =   -113.885990763007

 Vector    2  Occ=2.000000D+00  E=-1.134787D+01  Symmetry=a1

 Vector    3  Occ=2.000000D+00  E=-1.427915D+00  Symmetry=a1

 Vector    4  Occ=2.000000D+00  E=-8.684568D-01  Symmetry=a1

 Vector    5  Occ=2.000000D+00  E=-6.994924D-01  Symmetry=b2

 Vector    6  Occ=2.000000D+00  E=-6.607164D-01  Symmetry=a1

 Vector    7  Occ=2.000000D+00  E=-5.481050D-01  Symmetry=b1

 Vector    8  Occ=2.000000D+00  E=-4.388205D-01  Symmetry=b2

 Vector    9  Occ=0.000000D+00  E= 3.333242D-02  Symmetry=a1

 Vector   10  Occ=0.000000D+00  E= 5.122306D-02  Symmetry=b2

 Vector   11  Occ=0.000000D+00  E= 7.111571D-02  Symmetry=b1

 Vector   12  Occ=0.000000D+00  E= 8.952207D-02  Symmetry=a1

 Vector   13  Occ=0.000000D+00  E= 1.528103D-01  Symmetry=b1

 Vector   14  Occ=0.000000D+00  E= 1.544597D-01  Symmetry=b2

 Vector   15  Occ=0.000000D+00  E= 1.604638D-01  Symmetry=a1

 Vector   16  Occ=0.000000D+00  E= 2.193112D-01  Symmetry=a1

 Vector   17  Occ=0.000000D+00  E= 2.603440D-01  Symmetry=a1

 Vector   18  Occ=0.000000D+00  E= 2.663384D-01  Symmetry=b1

 Vector   19  Occ=0.000000D+00  E= 2.682859D-01  Symmetry=b2

 Vector   20  Occ=0.000000D+00  E= 3.247024D-01  Symmetry=a1

 Vector   21  Occ=0.000000D+00  E= 3.441823D-01  Symmetry=a2

 Vector   22  Occ=0.000000D+00  E= 3.567422D-01  Symmetry=b2

 Vector   23  Occ=0.000000D+00  E= 4.466808D-01  Symmetry=a1

 Vector   24  Occ=0.000000D+00  E= 4.538600D-01  Symmetry=b1

 Vector   25  Occ=0.000000D+00  E= 4.685106D-01  Symmetry=b2

 Vector   26  Occ=0.000000D+00  E= 5.126182D-01  Symmetry=a1

       Multipole analysis of the density wrt the origin
       ------------------------------------------------

     L   x y z        total         open         nuclear
     -   - - -        -----         ----         -------
     0   0 0 0     -0.000000      0.000000     16.000000

     1   1 0 0     -0.000000      0.000000      0.000000
     1   0 1 0     -0.000000      0.000000      0.000000
     1   0 0 1     -1.075404      0.000000      0.000000

     2   2 0 0     -8.682535      0.000000      0.000000
     2   1 1 0      0.000000      0.000000      0.000000
     2   1 0 1     -0.000000      0.000000      0.000000
     2   0 2 0     -8.542382      0.000000      6.210918
     2   0 1 1     -0.000000      0.000000      0.000000

 Total times  cpu:        1.2s     wall:        1.2s
