============================== echo of input deck ==============================
echo

start molecule

title "H2"
charge 0

memory total 2 gb

geometry units angstrom noautoz
symmetry group d2h
H 0.00000 0.00000 5.1
end

basis spherical
 * library aug-cc-pVDZ
end

tce
 cisd
 maxiter 6000
end

task tce energy
================================================================================

 Output coordinates in angstroms (scale by  1.889725989 to convert to a.u.)

  No.       Tag          Charge          X              Y              Z
 ---- ---------------- ---------- -------------- -------------- --------------
    1 H                    1.0000     0.00000000     0.00000000     5.10000000
    2 H                    1.0000     0.00000000     0.00000000    -5.10000000

         Total SCF energy =     -0.740070905907

 Vector    1  Occ=2.000000D+00  E=-2.545440D-01  Symmetry=b1u

 Vector    2  Occ=0.000000D+00  E=-2.026404D-01  Symmetry=ag

 Vector    3  Occ=0.000000D+00  E= 8.282846D-02  Symmetry=ag

 Vector    4  Occ=0.000000D+00  E= 8.558582D-02  Symmetry=b1u

 Vector    5  Occ=0.000000D+00  E= 2.855697D-01  Symmetry=b1u

 Vector    6  Occ=0.000000D+00  E= 2.856729D-01  Symmetry=b3g

 Vector    7  Occ=0.000000D+00  E= 2.856729D-01  Symmetry=b2g

 Vector    8  Occ=0.000000D+00  E= 2.858682D-01  Symmetry=b2u

 Vector    9  Occ=0.000000D+00  E= 2.858682D-01  Symmetry=b3u

 Vector   10  Occ=0.000000D+00  E= 2.859802D-01  Symmetry=ag

 Vector   11  Occ=0.000000D+00  E= 7.412515D-01  Symmetry=ag

       Multipole analysis of the density wrt the origin
       ------------------------------------------------

     L   x y z        total         open         nuclear
     -   - - -        -----         ----         -------
     0   0 0 0     -0.000000      0.000000      2.000000

     1   1 0 0      0.000000      0.000000      0.000000
     1   0 1 0     -0.000000      0.000000      0.000000
     1   0 0 1     -0.000000      0.000000      0.000000

     2   2 0 0     -3.213229      0.000000      0.000000
     2   1 1 0      0.000000      0.000000      0.000000
     2   1 0 1     -0.000000      0.000000      0.000000
     2   0 2 0     -3.213229      0.000000      0.000000
     2   0 1 1     -0.000000      0.000000      0.000000

 Total times  cpu:        1.0s     wall:        1.0s
