============================== echo of input deck ==============================
echo

start molecule

title "CO"
memory total 2 gb

charge 0
geometry units angstrom print xyz
 C 0.00000 0.00000 0.00000
 O 0.00000 0.00000 1.9
end

basis spherical
 * library cc-pVDZ
end

task scf
================================================================================

 Output coordinates in angstroms (scale by  1.889725989 to convert to a.u.)

  No.       Tag          Charge          X              Y              Z
 ---- ---------------- ---------- -------------- -------------- --------------
    1 C                    6.0000     0.00000000     0.00000000    -1.08571429
    2 O                    8.0000     0.00000000     0.00000000     0.81428571

         Total SCF energy =   -112.358072528634

 Vector    2  Occ=2.000000D+00  E=-1.150479D+01  Symmetry=a1

 Vector    3  Occ=2.000000D+00  E=-1.192123D+00  Symmetry=a1

 Vector    4  Occ=2.000000D+00  E=-8.002375D-01  Symmetry=a1

 Vector    5  Occ=2.000000D+00  E=-4.655742D-01  Symmetry=e

 Vector    6  Occ=2.000000D+00  E=-4.655742D-01  Symmetry=e

 Vector    7  Occ=2.000000D+00  E=-4.485365D-01  Symmetry=a1

 Vector    8  Occ=0.000000D+00  E=-1.138742D-02  Symmetry=e

 Vector    9  Occ=0.000000D+00  E=-1.138742D-02  Symmetry=e

 Vector   10  Occ=0.000000D+00  E= 1.451306D-01  Symmetry=a1

 Vector   11  Occ=0.000000D+00  E= 6.163044D-01  Symmetry=a1

 Vector   12  Occ=0.000000D+00  E= 6.513051D-01  Symmetry=e

 Vector   13  Occ=0.000000D+00  E= 6.513051D-01  Symmetry=e

 Vector   14  Occ=0.000000D+00  E= 7.279381D-01  Symmetry=a1

 Vector   15  Occ=0.000000D+00  E= 1.174468D+00  Symmetry=e

 Vector   16  Occ=0.000000D+00  E= 1.174468D+00  Symmetry=e

 Vector   17  Occ=0.000000D+00  E= 1.309554D+00  Symmetry=b1

       Multipole analysis of the density wrt the origin
       ------------------------------------------------

     L   x y z        total         open         nuclear
     -   - - -        -----         ----         -------
     0   0 0 0     -0.000000      0.000000     14.000000

     1   1 0 0      0.000000      0.000000      0.000000
     1   0 1 0     -0.000000      0.000000      0.000000
     1   0 0 1     -1.162199      0.000000      0.000000

     2   2 0 0     -7.871927      0.000000      0.000000
     2   1 1 0      0.000000      0.000000      0.000000
     2   1 0 1      0.000000      0.000000      0.000000
     2   0 2 0     -7.871927      0.000000      0.000000
     2   0 1 1      0.000000      0.000000      0.000000

 Total times  cpu:        0.1s     wall:        0.1s
