============================== echo of input deck ==============================
echo

start molecule

title "H2"
charge 0

memory total 2 gb

geometry units angstrom noautoz
symmetry group d2h
 H 0.00000 0.00000 0.25
end

basis spherical
 * library aug-cc-pVDZ
end

task mp2
================================================================================

 Output coordinates in angstroms (scale by  1.889725989 to convert to a.u.)

  No.       Tag          Charge          X              Y              Z
 ---- ---------------- ---------- -------------- -------------- --------------
    1 H                    1.0000     0.00000000     0.00000000     0.25000000
    2 H                    1.0000     0.00000000     0.00000000    -0.25000000

         Total SCF energy =     -1.049573433065

 Vector    1  Occ=2.000000D+00  E=-6.781102D-01  Symmetry=ag

 Vector    2  Occ=0.000000D+00  E= 6.328013D-02  Symmetry=ag

 Vector    3  Occ=0.000000D+00  E= 6.390582D-02  Symmetry=b1u

 Vector    4  Occ=0.000000D+00  E= 2.471746D-01  Symmetry=b1u

 Vector    5  Occ=0.000000D+00  E= 2.972791D-01  Symmetry=b3u

 Vector    6  Occ=0.000000D+00  E= 2.972791D-01  Symmetry=b2u

 Vector    7  Occ=0.000000D+00  E= 4.136126D-01  Symmetry=ag

 Vector    8  Occ=0.000000D+00  E= 4.708186D-01  Symmetry=b2g

 Vector    9  Occ=0.000000D+00  E= 4.708186D-01  Symmetry=b3g

 Vector   10  Occ=0.000000D+00  E= 6.140493D-01  Symmetry=b1u

 Vector   11  Occ=0.000000D+00  E= 6.711052D-01  Symmetry=ag

       Multipole analysis of the density wrt the origin
       ------------------------------------------------

     L   x y z        total         open         nuclear
     -   - - -        -----         ----         -------
     0   0 0 0     -0.000000      0.000000      2.000000

     1   1 0 0      0.000000      0.000000      0.000000
     1   0 1 0      0.000000      0.000000      0.000000
     1   0 0 1     -0.000000      0.000000      0.000000

     2   2 0 0     -1.229390      0.000000      0.000000
     2   1 1 0      0.000000      0.000000      0.000000
     2   1 0 1      0.000000      0.000000      0.000000
     2   0 2 0     -1.229390      0.000000      0.000000
     2   0 1 1      0.000000      0.000000      0.000000

          Total MP2 energy            -1.074429263473
 Total times  cpu:        0.1s     wall:        0.1s
