============================== echo of input deck ==============================
echo

start molecule

title "formaldehydeNotOptimized"
memory total 4 gb

charge 0
geometry units angstrom print xyz
 C  0.00000024     0.25211309     0.00000000
 O -0.00000001    -0.92995152     0.00000000
 H -0.00000012     0.83891922     0.93253272
 H -0.00000012     0.83891922    -0.93253272
end

basis spherical
* library cc-PVDZ
end

tce
 cisd
end

task tce energy
================================================================================

 Output coordinates in angstroms (scale by  1.889725989 to convert to a.u.)

  No.       Tag          Charge          X              Y              Z
 ---- ---------------- ---------- -------------- -------------- --------------
    1 C                    6.0000     0.00000000     0.00000000    -0.51768154
    2 O                    8.0000     0.00000000     0.00000000     0.66438307
    3 H                    1.0000     0.00000000     0.93253272    -1.10448767
    4 H                    1.0000     0.00000000    -0.93253272    -1.10448767

         Total SCF energy =   -113.877222714722

 Vector    2  Occ=2.000000D+00  E=-1.134120D+01  Symmetry=a1

 Vector    3  Occ=2.000000D+00  E=-1.419249D+00  Symmetry=a1

 Vector    4  Occ=2.000000D+00  E=-8.625457D-01  Symmetry=a1

 Vector    5  Occ=2.000000D+00  E=-6.932842D-01  Symmetry=b2

 Vector    6  Occ=2.000000D+00  E=-6.528816D-01  Symmetry=a1

 Vector    7  Occ=2.000000D+00  E=-5.393750D-01  Symmetry=b1

 Vector    8  Occ=2.000000D+00  E=-4.322183D-01  Symmetry=b2

 Vector    9  Occ=0.000000D+00  E= 1.430830D-01  Symmetry=b1

 Vector   10  Occ=0.000000D+00  E= 1.909726D-01  Symmetry=a1

 Vector   11  Occ=0.000000D+00  E= 2.605052D-01  Symmetry=b2

 Vector   12  Occ=0.000000D+00  E= 3.622832D-01  Symmetry=a1

 Vector   13  Occ=0.000000D+00  E= 6.678118D-01  Symmetry=b1

 Vector   14  Occ=0.000000D+00  E= 6.728123D-01  Symmetry=a1

 Vector   15  Occ=0.000000D+00  E= 7.401802D-01  Symmetry=b2

 Vector   16  Occ=0.000000D+00  E= 8.191580D-01  Symmetry=b2

 Vector   17  Occ=0.000000D+00  E= 9.175300D-01  Symmetry=a1

 Vector   18  Occ=0.000000D+00  E= 9.824610D-01  Symmetry=a1

       Multipole analysis of the density wrt the origin
       ------------------------------------------------

     L   x y z        total         open         nuclear
     -   - - -        -----         ----         -------
     0   0 0 0     -0.000000      0.000000     16.000000

     1   1 0 0     -0.000000      0.000000      0.000000
     1   0 1 0      0.000000      0.000000      0.000000
     1   0 0 1     -1.010433      0.000000      0.000000

     2   2 0 0     -8.505565      0.000000      0.000000
     2   1 1 0      0.000000      0.000000      0.000000
     2   1 0 1      0.000000      0.000000      0.000000
     2   0 2 0     -8.486605      0.000000      6.210918
     2   0 1 1      0.000000      0.000000      0.000000

 Total times  cpu:        3.6s     wall:        3.6s
