============================== echo of input deck ==============================
echo

start molecule

title "formaldehydeNotOptimized"
memory total 4 gb

charge 0
geometry units angstrom print xyz
 C  0.00000024     0.25211309     0.00000000
 O -0.00000001    -0.92995152     0.00000000
 H -0.00000012     0.83891922     0.93253272
 H -0.00000012     0.83891922    -0.93253272
end

basis spherical
* library cc-PVDZ
end

task mp2
================================================================================

 Output coordinates in angstroms (scale by  1.889725989 to convert to a.u.)

  No.       Tag          Charge          X              Y              Z
 ---- ---------------- ---------- -------------- -------------- --------------
    1 C                    6.0000     0.00000000     0.00000000    -0.51768154
    2 O                    8.0000     0.00000000     0.00000000     0.66438307
    3 H                    1.0000     0.00000000     0.93253272    -1.10448767
    4 H                    1.0000     0.00000000    -0.93253272    -1.10448767

         Total SCF energy =   -113.877222715288

 Vector    2  Occ=2.000000D+00  E=-1.134121D+01  Symmetry=a1

 Vector    3  Occ=2.000000D+00  E=-1.419247D+00  Symmetry=a1

 Vector    4  Occ=2.000000D+00  E=-8.625470D-01  Symmetry=a1

 Vector    5  Occ=2.000000D+00  E=-6.932850D-01  Symmetry=b2

 Vector    6  Occ=2.000000D+00  E=-6.528819D-01  Symmetry=a1

 Vector    7  Occ=2.000000D+00  E=-5.393742D-01  Symmetry=b1

 Vector    8  Occ=2.000000D+00  E=-4.322162D-01  Symmetry=b2

 Vector    9  Occ=0.000000D+00  E= 1.430826D-01  Symmetry=b1

 Vector   10  Occ=0.000000D+00  E= 1.909717D-01  Symmetry=a1

 Vector   11  Occ=0.000000D+00  E= 2.605045D-01  Symmetry=b2

 Vector   12  Occ=0.000000D+00  E= 3.622831D-01  Symmetry=a1

 Vector   13  Occ=0.000000D+00  E= 6.678095D-01  Symmetry=b1

 Vector   14  Occ=0.000000D+00  E= 6.728105D-01  Symmetry=a1

 Vector   15  Occ=0.000000D+00  E= 7.401798D-01  Symmetry=b2

 Vector   16  Occ=0.000000D+00  E= 8.191560D-01  Symmetry=b2

 Vector   17  Occ=0.000000D+00  E= 9.175277D-01  Symmetry=a1

 Vector   18  Occ=0.000000D+00  E= 9.824598D-01  Symmetry=a1

       Multipole analysis of the density wrt the origin
       ------------------------------------------------

     L   x y z        total         open         nuclear
     -   - - -        -----         ----         -------
     0   0 0 0     -0.000000      0.000000     16.000000

     1   1 0 0     -0.000000      0.000000      0.000000
     1   0 1 0      0.000000      0.000000      0.000000
     1   0 0 1     -1.010451      0.000000      0.000000

     2   2 0 0     -8.505564      0.000000      0.000000
     2   1 1 0     -0.000000      0.000000      0.000000
     2   1 0 1      0.000000      0.000000      0.000000
     2   0 2 0     -8.486637      0.000000      6.210918
     2   0 1 1      0.000000      0.000000      0.000000

          Total MP2 energy          -114.195645006295
 Total times  cpu:        1.2s     wall:        1.2s
