============================== echo of input deck ==============================
echo

start molecule

title "diethylether"
memory total 2 gb

charge 0
geometry units angstrom print xyz
 O     0.00000000     0.00000000    -0.22784882
 C    -1.17572811     0.00000000     0.52502392
 C     1.17572811     0.00000000     0.52502392
 C    -2.35878452     0.00000000    -0.41940646
 C     2.35878452     0.00000000    -0.41940646
 H    -1.20754240     0.88298938     1.17637288
 H    -1.20754240    -0.88298938     1.17637288
 H     1.20754240    -0.88298938     1.17637288
 H     1.20754240     0.88298938     1.17637288
 H    -3.29612084     0.00000000     0.14134896
 H    -2.33527916    -0.88415659    -1.05869291
 H    -2.33527916     0.88415659    -1.05869291
 H     3.29612084     0.00000000     0.14134896
 H     2.33527916    -0.88415659    -1.05869291
 H     2.33527916     0.88415659    -1.05869291

end

basis spherical
 * library aug-cc-pVDZ
end

task scf
================================================================================

 Output coordinates in angstroms (scale by  1.889725989 to convert to a.u.)

  No.       Tag          Charge          X              Y              Z
 ---- ---------------- ---------- -------------- -------------- --------------
    1 O                    8.0000     0.00000000     0.00000000    -0.23256398
    2 C                    6.0000    -1.17572811     0.00000000     0.52030876
    3 C                    6.0000     1.17572811     0.00000000     0.52030876
    4 C                    6.0000    -2.35878452     0.00000000    -0.42412162
    5 C                    6.0000     2.35878452     0.00000000    -0.42412162
    6 H                    1.0000    -1.20754240     0.88298938     1.17165772
    7 H                    1.0000    -1.20754240    -0.88298938     1.17165772
    8 H                    1.0000     1.20754240    -0.88298938     1.17165772
    9 H                    1.0000     1.20754240     0.88298938     1.17165772
   10 H                    1.0000    -3.29612084     0.00000000     0.13663380
   11 H                    1.0000    -2.33527916    -0.88415659    -1.06340807
   12 H                    1.0000    -2.33527916     0.88415659    -1.06340807
   13 H                    1.0000     3.29612084     0.00000000     0.13663380
   14 H                    1.0000     2.33527916    -0.88415659    -1.06340807
   15 H                    1.0000     2.33527916     0.88415659    -1.06340807

         Total SCF energy =   -232.175418402486

 Vector    6  Occ=2.000000D+00  E=-1.385562D+00  Symmetry=a1

 Vector    7  Occ=2.000000D+00  E=-1.045829D+00  Symmetry=b1

 Vector    8  Occ=2.000000D+00  E=-9.827383D-01  Symmetry=a1

 Vector    9  Occ=2.000000D+00  E=-8.453738D-01  Symmetry=b1

 Vector   10  Occ=2.000000D+00  E=-8.256942D-01  Symmetry=a1

 Vector   11  Occ=2.000000D+00  E=-6.782480D-01  Symmetry=b2

 Vector   12  Occ=2.000000D+00  E=-6.693088D-01  Symmetry=b1

 Vector   13  Occ=2.000000D+00  E=-6.035613D-01  Symmetry=a2

 Vector   14  Occ=2.000000D+00  E=-6.009637D-01  Symmetry=a1

 Vector   15  Occ=2.000000D+00  E=-5.475052D-01  Symmetry=a1

 Vector   16  Occ=2.000000D+00  E=-5.286410D-01  Symmetry=b2

 Vector   17  Occ=2.000000D+00  E=-5.207724D-01  Symmetry=b1

 Vector   18  Occ=2.000000D+00  E=-4.934776D-01  Symmetry=b1

 Vector   19  Occ=2.000000D+00  E=-4.846484D-01  Symmetry=a2

 Vector   20  Occ=2.000000D+00  E=-4.679743D-01  Symmetry=a1

 Vector   21  Occ=2.000000D+00  E=-4.140361D-01  Symmetry=b2

 Vector   22  Occ=0.000000D+00  E= 3.787510D-02  Symmetry=a1

 Vector   23  Occ=0.000000D+00  E= 4.509514D-02  Symmetry=b1

 Vector   24  Occ=0.000000D+00  E= 4.847305D-02  Symmetry=a1

 Vector   25  Occ=0.000000D+00  E= 4.942966D-02  Symmetry=b2

 Vector   26  Occ=0.000000D+00  E= 6.509212D-02  Symmetry=a1

 Vector   27  Occ=0.000000D+00  E= 6.598784D-02  Symmetry=b1

 Vector   28  Occ=0.000000D+00  E= 6.899930D-02  Symmetry=a2

 Vector   29  Occ=0.000000D+00  E= 7.725033D-02  Symmetry=b2

 Vector   30  Occ=0.000000D+00  E= 8.957043D-02  Symmetry=b1

 Vector   31  Occ=0.000000D+00  E= 9.900289D-02  Symmetry=a2

 Vector   32  Occ=0.000000D+00  E= 1.208122D-01  Symmetry=a1

 Vector   33  Occ=0.000000D+00  E= 1.320791D-01  Symmetry=a1

 Vector   34  Occ=0.000000D+00  E= 1.453780D-01  Symmetry=b1

 Vector   35  Occ=0.000000D+00  E= 1.584213D-01  Symmetry=b2

 Vector   36  Occ=0.000000D+00  E= 1.613543D-01  Symmetry=a1

 Vector   37  Occ=0.000000D+00  E= 1.622074D-01  Symmetry=b1

 Vector   38  Occ=0.000000D+00  E= 1.677367D-01  Symmetry=b2

 Vector   39  Occ=0.000000D+00  E= 1.713458D-01  Symmetry=a1

 Vector   40  Occ=0.000000D+00  E= 1.727447D-01  Symmetry=b1

 Vector   41  Occ=0.000000D+00  E= 1.762309D-01  Symmetry=a1

 Vector   42  Occ=0.000000D+00  E= 1.886632D-01  Symmetry=a2

 Vector   43  Occ=0.000000D+00  E= 1.952222D-01  Symmetry=b1

 Vector   44  Occ=0.000000D+00  E= 2.147905D-01  Symmetry=a2

 Vector   45  Occ=0.000000D+00  E= 2.225677D-01  Symmetry=a1

 Vector   46  Occ=0.000000D+00  E= 2.331966D-01  Symmetry=b1

 Vector   47  Occ=0.000000D+00  E= 2.591343D-01  Symmetry=b1

 Vector   48  Occ=0.000000D+00  E= 2.657542D-01  Symmetry=a1

 Vector   49  Occ=0.000000D+00  E= 2.831537D-01  Symmetry=b2

 Vector   50  Occ=0.000000D+00  E= 2.901323D-01  Symmetry=b2

 Vector   51  Occ=0.000000D+00  E= 3.046623D-01  Symmetry=a2

 Vector   52  Occ=0.000000D+00  E= 3.097477D-01  Symmetry=a1

 Vector   53  Occ=0.000000D+00  E= 3.271365D-01  Symmetry=b1

 Vector   54  Occ=0.000000D+00  E= 3.425186D-01  Symmetry=a2

 Vector   55  Occ=0.000000D+00  E= 3.441111D-01  Symmetry=a1

 Vector   56  Occ=0.000000D+00  E= 3.686777D-01  Symmetry=b1

 Vector   57  Occ=0.000000D+00  E= 3.760722D-01  Symmetry=a1

 Vector   58  Occ=0.000000D+00  E= 3.841621D-01  Symmetry=b1

 Vector   59  Occ=0.000000D+00  E= 3.894737D-01  Symmetry=a1

 Vector   60  Occ=0.000000D+00  E= 3.944162D-01  Symmetry=a1

 Vector   61  Occ=0.000000D+00  E= 4.045594D-01  Symmetry=b2

 Vector   62  Occ=0.000000D+00  E= 4.144888D-01  Symmetry=b2

 Vector   63  Occ=0.000000D+00  E= 4.388505D-01  Symmetry=a1

 Vector   64  Occ=0.000000D+00  E= 4.416360D-01  Symmetry=b2

 Vector   65  Occ=0.000000D+00  E= 4.449208D-01  Symmetry=b1

 Vector   66  Occ=0.000000D+00  E= 4.660778D-01  Symmetry=a1

 Vector   67  Occ=0.000000D+00  E= 4.689705D-01  Symmetry=b1

 Vector   68  Occ=0.000000D+00  E= 4.733724D-01  Symmetry=a2

 Vector   69  Occ=0.000000D+00  E= 4.818662D-01  Symmetry=b1

 Vector   70  Occ=0.000000D+00  E= 4.880077D-01  Symmetry=b2

 Vector   71  Occ=0.000000D+00  E= 4.936545D-01  Symmetry=b1

 Vector   72  Occ=0.000000D+00  E= 5.000812D-01  Symmetry=a2

       Multipole analysis of the density wrt the origin
       ------------------------------------------------

     L   x y z        total         open         nuclear
     -   - - -        -----         ----         -------
     0   0 0 0     -0.000000      0.000000     42.000000

     1   1 0 0     -0.000000      0.000000      0.000000
     1   0 1 0      0.000000      0.000000      0.000000
     1   0 0 1      0.469782      0.000000     -0.000000

     2   2 0 0    -23.227539      0.000000    473.987319
     2   1 1 0      0.000000      0.000000      0.000000
     2   1 0 1      0.000000      0.000000      0.000000
     2   0 2 0    -24.607852      0.000000     22.303484
     2   0 1 1      0.000000      0.000000      0.000000

 Total times  cpu:        4.2s     wall:        4.2s
