============================== echo of input deck ==============================
echo

start molecule

title "diethylether"
memory total 2 gb

charge 0
geometry units angstrom print xyz
 O     0.00000000     0.00000000    -0.22784882
 C    -1.17572811     0.00000000     0.52502392
 C     1.17572811     0.00000000     0.52502392
 C    -2.35878452     0.00000000    -0.41940646
 C     2.35878452     0.00000000    -0.41940646
 H    -1.20754240     0.88298938     1.17637288
 H    -1.20754240    -0.88298938     1.17637288
 H     1.20754240    -0.88298938     1.17637288
 H     1.20754240     0.88298938     1.17637288
 H    -3.29612084     0.00000000     0.14134896
 H    -2.33527916    -0.88415659    -1.05869291
 H    -2.33527916     0.88415659    -1.05869291
 H     3.29612084     0.00000000     0.14134896
 H     2.33527916    -0.88415659    -1.05869291
 H     2.33527916     0.88415659    -1.05869291

end

basis spherical
 * library aug-cc-pVTZ
end

task scf
================================================================================

 Output coordinates in angstroms (scale by  1.889725989 to convert to a.u.)

  No.       Tag          Charge          X              Y              Z
 ---- ---------------- ---------- -------------- -------------- --------------
    1 O                    8.0000     0.00000000     0.00000000    -0.23256398
    2 C                    6.0000    -1.17572811     0.00000000     0.52030876
    3 C                    6.0000     1.17572811     0.00000000     0.52030876
    4 C                    6.0000    -2.35878452     0.00000000    -0.42412162
    5 C                    6.0000     2.35878452     0.00000000    -0.42412162
    6 H                    1.0000    -1.20754240     0.88298938     1.17165772
    7 H                    1.0000    -1.20754240    -0.88298938     1.17165772
    8 H                    1.0000     1.20754240    -0.88298938     1.17165772
    9 H                    1.0000     1.20754240     0.88298938     1.17165772
   10 H                    1.0000    -3.29612084     0.00000000     0.13663380
   11 H                    1.0000    -2.33527916    -0.88415659    -1.06340807
   12 H                    1.0000    -2.33527916     0.88415659    -1.06340807
   13 H                    1.0000     3.29612084     0.00000000     0.13663380
   14 H                    1.0000     2.33527916    -0.88415659    -1.06340807
   15 H                    1.0000     2.33527916     0.88415659    -1.06340807

         Total SCF energy =   -232.235829638479

 Vector   13  Occ=2.000000D+00  E=-6.038681D-01  Symmetry=a2

 Vector   14  Occ=2.000000D+00  E=-6.008148D-01  Symmetry=a1

 Vector   15  Occ=2.000000D+00  E=-5.480014D-01  Symmetry=a1

 Vector   16  Occ=2.000000D+00  E=-5.293791D-01  Symmetry=b2

 Vector   17  Occ=2.000000D+00  E=-5.214047D-01  Symmetry=b1

 Vector   18  Occ=2.000000D+00  E=-4.936893D-01  Symmetry=b1

 Vector   19  Occ=2.000000D+00  E=-4.854917D-01  Symmetry=a2

 Vector   20  Occ=2.000000D+00  E=-4.683689D-01  Symmetry=a1

 Vector   21  Occ=2.000000D+00  E=-4.156028D-01  Symmetry=b2

 Vector   22  Occ=0.000000D+00  E= 3.147938D-02  Symmetry=a1

 Vector   23  Occ=0.000000D+00  E= 3.650737D-02  Symmetry=b1

 Vector   24  Occ=0.000000D+00  E= 4.017644D-02  Symmetry=a1

 Vector   25  Occ=0.000000D+00  E= 4.050514D-02  Symmetry=b2

 Vector   26  Occ=0.000000D+00  E= 5.446308D-02  Symmetry=a1

 Vector   27  Occ=0.000000D+00  E= 5.527322D-02  Symmetry=b1

 Vector   28  Occ=0.000000D+00  E= 5.707343D-02  Symmetry=a2

 Vector   29  Occ=0.000000D+00  E= 6.412697D-02  Symmetry=b2

 Vector   30  Occ=0.000000D+00  E= 7.727930D-02  Symmetry=b1

 Vector   31  Occ=0.000000D+00  E= 8.283080D-02  Symmetry=a2

 Vector   32  Occ=0.000000D+00  E= 1.012033D-01  Symmetry=a1

 Vector   33  Occ=0.000000D+00  E= 1.119100D-01  Symmetry=a1

 Vector   34  Occ=0.000000D+00  E= 1.227619D-01  Symmetry=b1

 Vector   35  Occ=0.000000D+00  E= 1.305578D-01  Symmetry=a1

 Vector   36  Occ=0.000000D+00  E= 1.341125D-01  Symmetry=b2

 Vector   37  Occ=0.000000D+00  E= 1.361933D-01  Symmetry=b2

 Vector   38  Occ=0.000000D+00  E= 1.364194D-01  Symmetry=b1

 Vector   39  Occ=0.000000D+00  E= 1.434564D-01  Symmetry=b1

 Vector   40  Occ=0.000000D+00  E= 1.445597D-01  Symmetry=a1

 Vector   41  Occ=0.000000D+00  E= 1.467289D-01  Symmetry=a1

 Vector   42  Occ=0.000000D+00  E= 1.560154D-01  Symmetry=a2

 Vector   43  Occ=0.000000D+00  E= 1.629472D-01  Symmetry=b1

 Vector   44  Occ=0.000000D+00  E= 1.792249D-01  Symmetry=a2

 Vector   45  Occ=0.000000D+00  E= 1.936524D-01  Symmetry=a1

 Vector   46  Occ=0.000000D+00  E= 2.012018D-01  Symmetry=b1

 Vector   47  Occ=0.000000D+00  E= 2.140943D-01  Symmetry=b2

 Vector   48  Occ=0.000000D+00  E= 2.190812D-01  Symmetry=a1

 Vector   49  Occ=0.000000D+00  E= 2.315128D-01  Symmetry=b2

 Vector   50  Occ=0.000000D+00  E= 2.370169D-01  Symmetry=a2

 Vector   51  Occ=0.000000D+00  E= 2.597210D-01  Symmetry=a1

 Vector   52  Occ=0.000000D+00  E= 2.621384D-01  Symmetry=b1

 Vector   53  Occ=0.000000D+00  E= 2.664539D-01  Symmetry=b1

 Vector   54  Occ=0.000000D+00  E= 2.732579D-01  Symmetry=a1

 Vector   55  Occ=0.000000D+00  E= 2.824487D-01  Symmetry=a2

 Vector   56  Occ=0.000000D+00  E= 2.914262D-01  Symmetry=a1

 Vector   57  Occ=0.000000D+00  E= 3.020960D-01  Symmetry=b2

 Vector   58  Occ=0.000000D+00  E= 3.023529D-01  Symmetry=b1

 Vector   59  Occ=0.000000D+00  E= 3.148751D-01  Symmetry=a1

 Vector   60  Occ=0.000000D+00  E= 3.162582D-01  Symmetry=a1

 Vector   61  Occ=0.000000D+00  E= 3.215972D-01  Symmetry=b2

 Vector   62  Occ=0.000000D+00  E= 3.238071D-01  Symmetry=b1

 Vector   63  Occ=0.000000D+00  E= 3.411969D-01  Symmetry=b2

 Vector   64  Occ=0.000000D+00  E= 3.437050D-01  Symmetry=a1

 Vector   65  Occ=0.000000D+00  E= 3.494031D-01  Symmetry=b1

 Vector   66  Occ=0.000000D+00  E= 3.632158D-01  Symmetry=b2

 Vector   67  Occ=0.000000D+00  E= 3.651212D-01  Symmetry=b1

 Vector   68  Occ=0.000000D+00  E= 3.685328D-01  Symmetry=a2

 Vector   69  Occ=0.000000D+00  E= 3.687385D-01  Symmetry=a1

 Vector   70  Occ=0.000000D+00  E= 3.789104D-01  Symmetry=a2

 Vector   71  Occ=0.000000D+00  E= 3.811046D-01  Symmetry=b1

 Vector   72  Occ=0.000000D+00  E= 3.872986D-01  Symmetry=a2

 Vector   73  Occ=0.000000D+00  E= 3.877109D-01  Symmetry=b2

 Vector   74  Occ=0.000000D+00  E= 3.987760D-01  Symmetry=b1

 Vector   75  Occ=0.000000D+00  E= 4.060564D-01  Symmetry=a1

 Vector   76  Occ=0.000000D+00  E= 4.222862D-01  Symmetry=a1

 Vector   77  Occ=0.000000D+00  E= 4.252564D-01  Symmetry=b1

 Vector   78  Occ=0.000000D+00  E= 4.265366D-01  Symmetry=a1

 Vector   79  Occ=0.000000D+00  E= 4.327265D-01  Symmetry=a1

 Vector   80  Occ=0.000000D+00  E= 4.356534D-01  Symmetry=b2

 Vector   81  Occ=0.000000D+00  E= 4.360783D-01  Symmetry=a2

 Vector   82  Occ=0.000000D+00  E= 4.397390D-01  Symmetry=a2

 Vector   83  Occ=0.000000D+00  E= 4.558353D-01  Symmetry=b2

 Vector   84  Occ=0.000000D+00  E= 4.595316D-01  Symmetry=b1

 Vector   85  Occ=0.000000D+00  E= 4.611596D-01  Symmetry=a1

 Vector   86  Occ=0.000000D+00  E= 4.708234D-01  Symmetry=b1

 Vector   87  Occ=0.000000D+00  E= 4.733183D-01  Symmetry=a2

 Vector   88  Occ=0.000000D+00  E= 4.736528D-01  Symmetry=b2

 Vector   89  Occ=0.000000D+00  E= 4.813195D-01  Symmetry=b2

 Vector   90  Occ=0.000000D+00  E= 4.816267D-01  Symmetry=a2

 Vector   91  Occ=0.000000D+00  E= 4.858917D-01  Symmetry=a1

 Vector   92  Occ=0.000000D+00  E= 5.039624D-01  Symmetry=a1

       Multipole analysis of the density wrt the origin
       ------------------------------------------------

     L   x y z        total         open         nuclear
     -   - - -        -----         ----         -------
     0   0 0 0     -0.000000      0.000000     42.000000

     1   1 0 0      0.000000      0.000000      0.000000
     1   0 1 0     -0.000000      0.000000      0.000000
     1   0 0 1      0.469197      0.000000     -0.000000

     2   2 0 0    -23.191279      0.000000    473.987319
     2   1 1 0      0.000000      0.000000      0.000000
     2   1 0 1      0.000000      0.000000      0.000000
     2   0 2 0    -24.523120      0.000000     22.303484
     2   0 1 1     -0.000000      0.000000      0.000000

 Total times  cpu:      133.0s     wall:      133.0s
