============================== echo of input deck ==============================
echo

start molecule

title "formaldehydeNotOptimized"
memory total 4 gb

charge 0
geometry units angstrom print xyz
 C 0.00000 0.00000 0.00000
 O 0.00000 0.00000 1.0
 H 0.30000 0.00000 0.00000
 H -0.3000 0.00000 0.00000
end

basis spherical
 * library cc-pVDZ
end

task scf optimize
================================================================================

         Total SCF energy =   -106.784700969976
@ Step       Energy      Delta E   Gmax     Grms     Xrms     Xmax   Walltime
@ ---- ---------------- -------- -------- -------- -------- -------- --------
@    0    -106.78470097  0.0D+00  3.79623  1.49768  0.00000  0.00000      0.4
         Total SCF energy =   -109.152338556451
         Total SCF energy =   -111.579812121819
@    1    -111.57981212 -4.8D+00  1.34215  0.49546  0.14364  0.33253      0.9
         Total SCF energy =   -112.381679040885
         Total SCF energy =   -113.308585424199
@    2    -113.30858542 -1.7D+00  0.45629  0.16299  0.20808  0.45070      1.3
         Total SCF energy =   -113.551454197753
         Total SCF energy =   -113.742550260910
@    3    -113.74255026 -4.3D-01  0.15057  0.06256  0.13853  0.27126      1.7
         Total SCF energy =   -113.807267890358
         Total SCF energy =   -113.812014993610
@    4    -113.81201499 -6.9D-02  0.08248  0.03406  0.07283  0.14983      2.1
         Total SCF energy =   -113.857967430456
         Total SCF energy =   -113.875868670629

 Vector    7  Occ=2.000000D+00  E=-5.428412D-01  Symmetry=a'

 Vector    8  Occ=2.000000D+00  E=-4.322726D-01  Symmetry=a"

 Vector    9  Occ=0.000000D+00  E= 1.477475D-01  Symmetry=a'

 Vector   10  Occ=0.000000D+00  E= 1.955357D-01  Symmetry=a'

 Vector   11  Occ=0.000000D+00  E= 2.617821D-01  Symmetry=a"

 Vector   12  Occ=0.000000D+00  E= 3.639005D-01  Symmetry=a'

 Vector   13  Occ=0.000000D+00  E= 6.677355D-01  Symmetry=a'

 Vector   14  Occ=0.000000D+00  E= 6.792011D-01  Symmetry=a'

 Vector   15  Occ=0.000000D+00  E= 7.471292D-01  Symmetry=a"

 Vector   16  Occ=0.000000D+00  E= 8.380899D-01  Symmetry=a"

 Vector   17  Occ=0.000000D+00  E= 9.270822D-01  Symmetry=a'

 Vector   18  Occ=0.000000D+00  E= 9.970865D-01  Symmetry=a'

@    5    -113.87586867 -6.4D-02  0.01134  0.00458  0.11402  0.20782      2.4
         Total SCF energy =   -113.877052907997

 Vector    2  Occ=2.000000D+00  E=-1.133821D+01  Symmetry=a'

 Vector    3  Occ=2.000000D+00  E=-1.422402D+00  Symmetry=a'

 Vector    4  Occ=2.000000D+00  E=-8.640728D-01  Symmetry=a'

 Vector    5  Occ=2.000000D+00  E=-6.967647D-01  Symmetry=a"

 Vector    6  Occ=2.000000D+00  E=-6.540997D-01  Symmetry=a'

 Vector    7  Occ=2.000000D+00  E=-5.411932D-01  Symmetry=a'

 Vector    8  Occ=2.000000D+00  E=-4.320259D-01  Symmetry=a"

 Vector    9  Occ=0.000000D+00  E= 1.450351D-01  Symmetry=a'

 Vector   10  Occ=0.000000D+00  E= 1.925851D-01  Symmetry=a'

 Vector   11  Occ=0.000000D+00  E= 2.612335D-01  Symmetry=a"

 Vector   12  Occ=0.000000D+00  E= 3.629201D-01  Symmetry=a'

 Vector   13  Occ=0.000000D+00  E= 6.677057D-01  Symmetry=a'

 Vector   14  Occ=0.000000D+00  E= 6.755971D-01  Symmetry=a'

 Vector   15  Occ=0.000000D+00  E= 7.421965D-01  Symmetry=a"

 Vector   16  Occ=0.000000D+00  E= 8.249068D-01  Symmetry=a"

 Vector   17  Occ=0.000000D+00  E= 9.217261D-01  Symmetry=a'

 Vector   18  Occ=0.000000D+00  E= 9.879080D-01  Symmetry=a'

         Total SCF energy =   -113.877212997430

 Vector    2  Occ=2.000000D+00  E=-1.134093D+01  Symmetry=a'

 Vector    3  Occ=2.000000D+00  E=-1.420790D+00  Symmetry=a'

 Vector    4  Occ=2.000000D+00  E=-8.623348D-01  Symmetry=a'

 Vector    5  Occ=2.000000D+00  E=-6.935773D-01  Symmetry=a"

 Vector    6  Occ=2.000000D+00  E=-6.536581D-01  Symmetry=a'

 Vector    7  Occ=2.000000D+00  E=-5.404295D-01  Symmetry=a'

 Vector    8  Occ=2.000000D+00  E=-4.318670D-01  Symmetry=a"

 Vector    9  Occ=0.000000D+00  E= 1.437291D-01  Symmetry=a'

 Vector   10  Occ=0.000000D+00  E= 1.910729D-01  Symmetry=a'

 Vector   11  Occ=0.000000D+00  E= 2.608963D-01  Symmetry=a"

 Vector   12  Occ=0.000000D+00  E= 3.624280D-01  Symmetry=a'

 Vector   13  Occ=0.000000D+00  E= 6.676614D-01  Symmetry=a'

 Vector   14  Occ=0.000000D+00  E= 6.738246D-01  Symmetry=a'

 Vector   15  Occ=0.000000D+00  E= 7.395721D-01  Symmetry=a"

 Vector   16  Occ=0.000000D+00  E= 8.189893D-01  Symmetry=a"

 Vector   17  Occ=0.000000D+00  E= 9.190942D-01  Symmetry=a'

 Vector   18  Occ=0.000000D+00  E= 9.836423D-01  Symmetry=a'

@    6    -113.87721300 -1.3D-03  0.00183  0.00062  0.02073  0.03831      2.8
         Total SCF energy =   -113.877222695234

 Vector    2  Occ=2.000000D+00  E=-1.134120D+01  Symmetry=a'

 Vector    3  Occ=2.000000D+00  E=-1.419206D+00  Symmetry=a'

 Vector    4  Occ=2.000000D+00  E=-8.625734D-01  Symmetry=a'

 Vector    5  Occ=2.000000D+00  E=-6.933094D-01  Symmetry=a"

 Vector    6  Occ=2.000000D+00  E=-6.528565D-01  Symmetry=a'

 Vector    7  Occ=2.000000D+00  E=-5.393435D-01  Symmetry=a'

 Vector    8  Occ=2.000000D+00  E=-4.322297D-01  Symmetry=a"

 Vector    9  Occ=0.000000D+00  E= 1.430707D-01  Symmetry=a'

 Vector   10  Occ=0.000000D+00  E= 1.909834D-01  Symmetry=a'

 Vector   11  Occ=0.000000D+00  E= 2.604921D-01  Symmetry=a"

 Vector   12  Occ=0.000000D+00  E= 3.622827D-01  Symmetry=a'

 Vector   13  Occ=0.000000D+00  E= 6.678146D-01  Symmetry=a'

 Vector   14  Occ=0.000000D+00  E= 6.727837D-01  Symmetry=a'

 Vector   15  Occ=0.000000D+00  E= 7.402381D-01  Symmetry=a"

 Vector   16  Occ=0.000000D+00  E= 8.192228D-01  Symmetry=a"

 Vector   17  Occ=0.000000D+00  E= 9.174930D-01  Symmetry=a'

 Vector   18  Occ=0.000000D+00  E= 9.824594D-01  Symmetry=a'

         Total SCF energy =   -113.877222695234
@    7    -113.87722270 -9.7D-06  0.00004  0.00002  0.00121  0.00276      3.1
         Total SCF energy =   -113.877222715134

 Vector    2  Occ=2.000000D+00  E=-1.134121D+01  Symmetry=a'

 Vector    3  Occ=2.000000D+00  E=-1.419247D+00  Symmetry=a'

 Vector    4  Occ=2.000000D+00  E=-8.625471D-01  Symmetry=a'

 Vector    5  Occ=2.000000D+00  E=-6.932852D-01  Symmetry=a"

 Vector    6  Occ=2.000000D+00  E=-6.528820D-01  Symmetry=a'

 Vector    7  Occ=2.000000D+00  E=-5.393743D-01  Symmetry=a'

 Vector    8  Occ=2.000000D+00  E=-4.322165D-01  Symmetry=a"

 Vector    9  Occ=0.000000D+00  E= 1.430825D-01  Symmetry=a'

 Vector   10  Occ=0.000000D+00  E= 1.909716D-01  Symmetry=a'

 Vector   11  Occ=0.000000D+00  E= 2.605044D-01  Symmetry=a"

 Vector   12  Occ=0.000000D+00  E= 3.622830D-01  Symmetry=a'

 Vector   13  Occ=0.000000D+00  E= 6.678094D-01  Symmetry=a'

 Vector   14  Occ=0.000000D+00  E= 6.728104D-01  Symmetry=a'

 Vector   15  Occ=0.000000D+00  E= 7.401797D-01  Symmetry=a"

 Vector   16  Occ=0.000000D+00  E= 8.191557D-01  Symmetry=a"

 Vector   17  Occ=0.000000D+00  E= 9.175275D-01  Symmetry=a'

 Vector   18  Occ=0.000000D+00  E= 9.824596D-01  Symmetry=a'

       Multipole analysis of the density wrt the origin
       ------------------------------------------------

     L   x y z        total         open         nuclear
     -   - - -        -----         ----         -------
     0   0 0 0     -0.000000      0.000000     16.000000

     1   1 0 0      0.000000      0.000000      0.000002
     1   0 1 0      1.010453      0.000000     -8.029626
     1   0 0 1     -0.000000      0.000000      0.000000

     2   2 0 0     -8.505569      0.000000      0.000000
     2   1 1 0     -0.000000      0.000000      0.000001
     2   1 0 1     -0.000000      0.000000      0.000000
     2   0 2 0     -9.842669      0.000000     31.094741
     2   0 1 1      0.000000      0.000000      0.000000

         Total SCF energy =   -113.877222715134
@    8    -113.87722272 -2.0D-08  0.00001  0.00000  0.00008  0.00018      3.4
@    8    -113.87722272 -2.0D-08  0.00001  0.00000  0.00008  0.00018      3.4

 Output coordinates in angstroms (scale by  1.889725989 to convert to a.u.)

  No.       Tag          Charge          X              Y              Z
 ---- ---------------- ---------- -------------- -------------- --------------
    1 C                    6.0000     0.00000024     0.25211309     0.00000000
    2 O                    8.0000    -0.00000001    -0.92995152     0.00000000
    3 H                    1.0000    -0.00000012     0.83891922     0.93253272
    4 H                    1.0000    -0.00000012     0.83891922    -0.93253272

 Total times  cpu:        3.4s     wall:        3.4s
