============================== echo of input deck ==============================
echo

start molecule

title "diethylether"
memory total 2 gb

charge 0
geometry units angstrom print xyz
 O     0.00000000     0.00000000    -0.22784882
 C    -1.17572811     0.00000000     0.52502392
 C     1.17572811     0.00000000     0.52502392
 C    -2.35878452     0.00000000    -0.41940646
 C     2.35878452     0.00000000    -0.41940646
 H    -1.20754240     0.88298938     1.17637288
 H    -1.20754240    -0.88298938     1.17637288
 H     1.20754240    -0.88298938     1.17637288
 H     1.20754240     0.88298938     1.17637288
 H    -3.29612084     0.00000000     0.14134896
 H    -2.33527916    -0.88415659    -1.05869291
 H    -2.33527916     0.88415659    -1.05869291
 H     3.29612084     0.00000000     0.14134896
 H     2.33527916    -0.88415659    -1.05869291
 H     2.33527916     0.88415659    -1.05869291

end

basis spherical
 * library 6-311G
end

task scf
================================================================================

 Output coordinates in angstroms (scale by  1.889725989 to convert to a.u.)

  No.       Tag          Charge          X              Y              Z
 ---- ---------------- ---------- -------------- -------------- --------------
    1 O                    8.0000     0.00000000     0.00000000    -0.23256398
    2 C                    6.0000    -1.17572811     0.00000000     0.52030876
    3 C                    6.0000     1.17572811     0.00000000     0.52030876
    4 C                    6.0000    -2.35878452     0.00000000    -0.42412162
    5 C                    6.0000     2.35878452     0.00000000    -0.42412162
    6 H                    1.0000    -1.20754240     0.88298938     1.17165772
    7 H                    1.0000    -1.20754240    -0.88298938     1.17165772
    8 H                    1.0000     1.20754240    -0.88298938     1.17165772
    9 H                    1.0000     1.20754240     0.88298938     1.17165772
   10 H                    1.0000    -3.29612084     0.00000000     0.13663380
   11 H                    1.0000    -2.33527916    -0.88415659    -1.06340807
   12 H                    1.0000    -2.33527916     0.88415659    -1.06340807
   13 H                    1.0000     3.29612084     0.00000000     0.13663380
   14 H                    1.0000     2.33527916    -0.88415659    -1.06340807
   15 H                    1.0000     2.33527916     0.88415659    -1.06340807

         Total SCF energy =   -232.094224643019

 Vector    6  Occ=2.000000D+00  E=-1.390474D+00  Symmetry=a1

 Vector    7  Occ=2.000000D+00  E=-1.051939D+00  Symmetry=b1

 Vector    8  Occ=2.000000D+00  E=-9.869969D-01  Symmetry=a1

 Vector    9  Occ=2.000000D+00  E=-8.504500D-01  Symmetry=b1

 Vector   10  Occ=2.000000D+00  E=-8.294407D-01  Symmetry=a1

 Vector   11  Occ=2.000000D+00  E=-6.832601D-01  Symmetry=b2

 Vector   12  Occ=2.000000D+00  E=-6.691862D-01  Symmetry=b1

 Vector   13  Occ=2.000000D+00  E=-6.087700D-01  Symmetry=a2

 Vector   14  Occ=2.000000D+00  E=-6.008941D-01  Symmetry=a1

 Vector   15  Occ=2.000000D+00  E=-5.479772D-01  Symmetry=a1

 Vector   16  Occ=2.000000D+00  E=-5.289405D-01  Symmetry=b2

 Vector   17  Occ=2.000000D+00  E=-5.204156D-01  Symmetry=b1

 Vector   18  Occ=2.000000D+00  E=-4.949657D-01  Symmetry=b1

 Vector   19  Occ=2.000000D+00  E=-4.864745D-01  Symmetry=a2

 Vector   20  Occ=2.000000D+00  E=-4.621068D-01  Symmetry=a1

 Vector   21  Occ=2.000000D+00  E=-4.127169D-01  Symmetry=b2

 Vector   22  Occ=0.000000D+00  E= 1.565926D-01  Symmetry=a1

 Vector   23  Occ=0.000000D+00  E= 1.728270D-01  Symmetry=b1

 Vector   24  Occ=0.000000D+00  E= 1.882962D-01  Symmetry=a1

 Vector   25  Occ=0.000000D+00  E= 1.938352D-01  Symmetry=b2

 Vector   26  Occ=0.000000D+00  E= 2.279335D-01  Symmetry=a1

 Vector   27  Occ=0.000000D+00  E= 2.285984D-01  Symmetry=b1

 Vector   28  Occ=0.000000D+00  E= 2.361921D-01  Symmetry=a2

 Vector   29  Occ=0.000000D+00  E= 2.544700D-01  Symmetry=b1

 Vector   30  Occ=0.000000D+00  E= 2.568068D-01  Symmetry=b2

 Vector   31  Occ=0.000000D+00  E= 2.746332D-01  Symmetry=a2

 Vector   32  Occ=0.000000D+00  E= 3.053469D-01  Symmetry=a1

 Vector   33  Occ=0.000000D+00  E= 3.581609D-01  Symmetry=a1

 Vector   34  Occ=0.000000D+00  E= 4.039408D-01  Symmetry=b1

 Vector   35  Occ=0.000000D+00  E= 4.125062D-01  Symmetry=b1

 Vector   36  Occ=0.000000D+00  E= 4.533881D-01  Symmetry=a1

 Vector   37  Occ=0.000000D+00  E= 4.581861D-01  Symmetry=b2

 Vector   38  Occ=0.000000D+00  E= 4.702851D-01  Symmetry=a2

 Vector   39  Occ=0.000000D+00  E= 4.984093D-01  Symmetry=b1

 Vector   40  Occ=0.000000D+00  E= 5.407219D-01  Symmetry=a1

       Multipole analysis of the density wrt the origin
       ------------------------------------------------

     L   x y z        total         open         nuclear
     -   - - -        -----         ----         -------
     0   0 0 0     -0.000000      0.000000     42.000000

     1   1 0 0     -0.000000      0.000000      0.000000
     1   0 1 0      0.000000      0.000000      0.000000
     1   0 0 1      0.605097      0.000000     -0.000000

     2   2 0 0    -22.992062      0.000000    473.987319
     2   1 1 0      0.000000      0.000000      0.000000
     2   1 0 1     -0.000000      0.000000      0.000000
     2   0 2 0    -24.858959      0.000000     22.303484
     2   0 1 1      0.000000      0.000000      0.000000

 Total times  cpu:        0.6s     wall:        0.6s
